VARIABLES = "Cell" "Mode 0" "Mode 1" "Mode 2" "Mode 3" "Mode 4" "Mode 5" "Mode 6" "Mode 7" "Mode 8" "Mode 9" 
ZONE T = Iteration14
0 0.504711 0.504813 0.509741 0.51986 0.518434 0.500207 0.465853 0.420298 0.368421 0.312558 
1 0.682286 0.737133 0.660772 0.591985 0.553428 0.517756 0.472299 0.416146 0.35655 0.301446 
2 0.633263 0.419445 0.377583 0.453215 0.485443 0.483309 0.453017 0.406727 0.356209 0.304988 
3 0.495539 0.501083 0.501009 0.506897 0.503821 0.484615 0.448663 0.400838 0.347489 0.293157 
4 -1.28537 7.78322 7.49484 3.53501 1.98899 1.23987 0.839561 0.598096 0.440587 0.338978 
5 0.383812 0.412006 0.44951 0.479294 0.488015 0.475859 0.445329 0.400827 0.346419 0.285885 
6 21.3056 -7.96595 -1.89309 -0.0113988 0.327107 0.41871 0.422322 0.385024 0.337294 0.29519 
7 0.0619702 0.301932 0.0523868 0.258517 0.383642 0.424075 0.420241 0.396507 0.362214 0.319054 
8 0.107692 0.215917 0.319493 0.406591 0.456439 0.47123 0.456922 0.422649 0.376491 0.324428 
9 -0.318556 0.117749 0.163078 0.326877 0.408067 0.430538 0.423391 0.399702 0.364315 0.319762 
10 0.265401 0.309599 0.359994 0.41752 0.460292 0.475617 0.461862 0.426346 0.378354 0.325063 
11 0.160439 0.266761 0.297604 0.367715 0.412507 0.434626 0.432967 0.409807 0.370984 0.322679 
12 -0.109723 0.411346 0.868228 0.68009 0.583994 0.515296 0.455923 0.401121 0.341308 0.27323 
13 0.565995 3.70425 -1.14503 -0.284928 0.0975965 0.266848 0.331028 0.337217 0.305374 0.262382 
14 -1.57564 0.633001 0.186601 0.259444 0.348656 0.382216 0.383269 0.367824 0.34291 0.309117 
15 -2.88251 -0.177338 -0.0457686 0.213812 0.34706 0.386379 0.376119 0.349625 0.322053 0.293441 
16 0.40188 0.383747 0.364939 0.389024 0.433204 0.461612 0.457917 0.426402 0.378951 0.325349 
17 0.460455 0.467243 0.46906 0.476059 0.473525 0.454755 0.419293 0.371762 0.318079 0.262889 
18 0.44558 0.455525 0.46129 0.468823 0.466508 0.447783 0.412358 0.365467 0.313282 0.258041 
19 0.362216 0.439942 0.423182 0.396358 0.381332 0.392584 0.407938 0.401553 0.370092 0.323226 
20 0.445015 0.450041 0.451297 0.458401 0.455925 0.437085 0.401343 0.353681 0.300874 0.247306 
21 0.42981 0.418039 0.372883 0.362715 0.390731 0.425729 0.437475 0.418034 0.37652 0.324913 
22 3.11757 0.172186 0.228353 0.304651 0.365919 0.381364 0.348321 0.293846 0.255757 0.235945 
23 -8.44362 0.0228779 0.545253 0.46512 0.441061 0.403157 0.348942 0.306391 0.284387 0.268638 
24 0.468909 0.231961 0.458806 0.454321 0.444772 0.419925 0.383713 0.342573 0.291393 0.224207 
25 -0.173554 0.473163 0.405525 0.394457 0.366858 0.334916 0.334636 0.348372 0.343556 0.313762 
26 0.445748 0.456923 0.424521 0.433647 0.432472 0.414037 0.378272 0.331729 0.279822 0.22168 
27 0.271787 0.443524 0.422645 0.384814 0.345744 0.338941 0.360994 0.374788 0.359425 0.32031 
28 -1.62218 0.307895 0.502279 0.448969 0.422285 0.363388 0.29258 0.260779 0.267449 0.271862 
29 -0.0310519 0.354374 0.394438 0.404801 0.410624 0.401589 0.357764 0.284279 0.220552 0.193655 
30 -0.0797719 0.41588 0.46982 0.431611 0.385606 0.32305 0.289217 0.298976 0.312217 0.299958 
31 0.414958 0.244791 0.341012 0.371173 0.381489 0.381934 0.365207 0.311275 0.225016 0.155992 
32 0.40718 0.412663 0.414207 0.421421 0.419048 0.400361 0.364646 0.316716 0.263788 0.210829 
33 0.369508 0.346398 0.294947 0.280654 0.321257 0.381995 0.416756 0.410641 0.374631 0.324586 
34 0.378493 0.389055 0.394595 0.401432 0.398866 0.379803 0.343734 0.296983 0.246344 0.191207 
35 0.30911 0.266215 0.226473 0.25474 0.334093 0.407337 0.435745 0.419797 0.377631 0.325201 
36 0.330362 0.3711 0.337178 0.281488 0.263555 0.304349 0.358188 0.380634 0.363851 0.322028 
37 0.15645 0.343 0.348315 0.35642 0.366479 0.331491 0.250652 0.190107 0.197716 0.232062 
38 0.388941 0.395958 0.398032 0.405157 0.402693 0.384033 0.348688 0.30106 0.24711 0.192217 
39 0.283114 0.358201 0.356983 0.358744 0.35441 0.347284 0.319663 0.247096 0.158695 0.126334 
40 0.590089 0.310565 0.301869 0.33613 0.336421 0.28761 0.231406 0.222281 0.251722 0.2709 
41 0.330076 0.314891 0.337637 0.351045 0.34716 0.333716 0.319136 0.275378 0.181647 0.0937083 
42 0.345654 0.322442 0.311961 0.317131 0.330773 0.328295 0.272013 0.179116 0.132154 0.157009 
43 0.349963 0.358071 0.360875 0.367225 0.364898 0.347897 0.310648 0.257514 0.21073 0.173359 
44 0.275028 0.29017 0.29118 0.248094 0.210534 0.234952 0.296248 0.341775 0.347262 0.31743 
45 0.354683 0.361419 0.363427 0.370563 0.368074 0.349301 0.313957 0.266752 0.21285 0.15633 
46 0.239212 0.204163 0.157938 0.1845 0.277823 0.372856 0.419991 0.41464 0.376571 0.32512 
47 0.338065 0.253651 0.278603 0.307078 0.26954 0.193668 0.165883 0.206595 0.261255 0.281384 
48 0.319622 0.32629 0.32502 0.332763 0.327917 0.300943 0.268596 0.240975 0.1825 0.0828577 
49 0.319104 0.327225 0.329353 0.336812 0.337536 0.317263 0.27311 0.233217 0.203364 0.128345 
50 0.261533 0.256912 0.286298 0.268671 0.200059 0.170632 0.217201 0.284609 0.319019 0.308096 
51 0.322667 0.329109 0.331077 0.338246 0.335691 0.317282 0.2822 0.232871 0.178152 0.130989 
52 0.325974 0.332625 0.334594 0.341735 0.339236 0.320534 0.285456 0.237816 0.18245 0.128129 
53 0.220452 0.253169 0.225978 0.162913 0.149187 0.222918 0.317582 0.366935 0.36147 0.32223 
54 0.210668 0.197573 0.137904 0.124221 0.195258 0.304244 0.381253 0.399281 0.372492 0.324513 
55 0.255773 0.261125 0.255865 0.256444 0.266219 0.26798 0.214298 0.118059 0.0668014 0.105447 
56 0.26449 0.270216 0.27163 0.278807 0.271303 0.25011 0.22742 0.185704 0.0977253 0.0169862 
57 0.203278 0.213324 0.22825 0.256922 0.241105 0.162733 0.0991706 0.122405 0.194929 0.246634 
58 0.298169 0.304791 0.306773 0.313898 0.311406 0.292681 0.25745 0.210329 0.156179 0.0992937 
59 0.272241 0.278899 0.28091 0.287528 0.285597 0.267575 0.228074 0.180668 0.143588 0.0841705 
60 0.168262 0.194539 0.222141 0.202533 0.131108 0.095686 0.161088 0.262576 0.315762 0.30922 
61 0.160121 0.0974309 0.0150848 0.0433823 0.182793 0.32722 0.404343 0.411538 0.376678 0.3254 
62 0.277807 0.28429 0.286547 0.293638 0.290718 0.273077 0.237549 0.184886 0.135862 0.0986328 
63 0.214882 0.211655 0.211122 0.240264 0.262113 0.213296 0.100885 0.0453021 0.0976573 0.180904 
64 0.160537 0.194127 0.191665 0.13953 0.093502 0.132598 0.237891 0.323725 0.345877 0.318811 
65 0.237254 0.244118 0.245991 0.248216 0.242055 0.236086 0.21205 0.133492 0.0375241 0.0227938 
66 0.236907 0.243826 0.245884 0.253669 0.252102 0.231843 0.196941 0.158186 0.0997292 0.0088849 
67 0.266197 0.272806 0.274741 0.281892 0.279577 0.260974 0.2254 0.177217 0.122565 0.0698222 
68 0.152221 0.163648 0.186409 0.205001 0.165795 0.091712 0.079842 0.161434 0.248598 0.280955 
69 0.144284 0.103258 0.00425849 -0.028801 0.0753144 0.242763 0.361051 0.396498 0.373608 0.325346 
70 0.248407 0.254982 0.256977 0.264369 0.261808 0.24249 0.207127 0.159828 0.106443 0.0567651 
71 0.145516 0.172168 0.109999 0.004912 -0.01327 0.10432 0.254816 0.343689 0.356495 0.32245 
72 0.192597 0.199691 0.200629 0.203875 0.200948 0.195679 0.173075 0.099444 -0.00250051 -0.0384775 
73 0.246747 0.253372 0.255335 0.262436 0.259954 0.241309 0.20608 0.158656 0.104141 0.0473313 
74 0.0737667 0.0045094 -0.0687895 -0.0359507 0.111075 0.283157 0.387133 0.407999 0.377099 0.326004 
75 0.203261 0.210312 0.212958 0.219349 0.212538 0.193059 0.172889 0.138669 0.0526403 -0.0568068 
76 0.159095 0.15817 0.159105 0.190376 0.209733 0.157213 0.0483494 -0.0125597 0.0573114 0.175761 
77 0.130148 0.135692 0.148792 0.167812 0.144743 0.0787054 0.0325289 0.0758144 0.182138 0.255069 
78 0.0908268 0.130207 0.109207 0.0223004 -0.0533176 -0.00957081 0.132515 0.264728 0.324561 0.315628 
79 0.206107 0.21299 0.215105 0.222244 0.220215 0.200484 0.160751 0.115454 0.0805496 0.028306 
80 0.0767096 0.118376 0.153507 0.128332 0.0198929 -0.061267 -0.00951765 0.126288 0.244095 0.287242 
81 0.183056 0.189972 0.192245 0.199604 0.195339 0.172209 0.14024 0.112248 0.0631905 -0.0422919 
82 0.143609 0.149311 0.149443 0.155516 0.162477 0.162749 0.118495 0.0119094 -0.0772407 -0.0498266 
83 0.0520472 0.0163704 -0.0642682 -0.0865285 0.0025974 0.165142 0.30915 0.375175 0.368955 0.325519 
84 0.12171 0.128522 0.128985 0.140196 0.152223 0.132343 0.0558823 -0.0281724 -0.0256893 0.0744502 
85 0.208122 0.214637 0.216704 0.224179 0.221864 0.202724 0.166393 0.117854 0.065519 0.0181016 
86 0.0588301 0.0840728 0.0308429 -0.0557803 -0.0831257 0.00599624 0.164158 0.290781 0.336578 0.318402 
87 0.182837 0.189548 0.192008 0.19928 0.19625 0.17702 0.140953 0.093268 0.0463853 0.00189686 
88 0.0277978 0.0564898 0.0976158 0.104664 0.0279181 -0.0817444 -0.0920654 0.0358185 0.184163 0.259968 
89 -0.0406848 -0.0893916 -0.144488 -0.114637 0.0243639 0.20823 0.342963 0.391419 0.374077 0.326425 
90 0.136547 0.143425 0.147061 0.155033 0.147466 0.121686 0.0967045 0.0772027 0.016444 -0.10539 
91 -0.00240718 0.0408778 0.0532167 0.0010181 -0.082537 -0.088629 0.0145838 0.165885 0.270752 0.29704 
92 0.109193 0.11453 0.115098 0.121621 0.121241 0.112252 0.0902638 0.0256578 -0.0826316 -0.143104 
93 0.176195 0.182707 0.18457 0.191863 0.189898 0.171551 0.13559 0.0863737 0.0315304 -0.0196364 
94 0.0447576 0.0500368 0.0772447 0.114997 0.0987699 -0.000110179 -0.103914 -0.0871994 0.0370619 0.163152 
95 0.136485 0.142501 0.144661 0.153758 0.152483 0.128883 0.0872004 0.0505837 0.0210527 -0.0464281 
96 -0.0414686 -0.0113298 -0.0317212 -0.101258 -0.158547 -0.105112 0.0571175 0.218759 0.304608 0.310593 
97 0.00847197 0.00532103 0.0212149 0.062642 0.0650702 -0.0149324 -0.130026 -0.16166 -0.0563894 0.097904 
98 0.0719726 0.0743539 0.0630493 0.063701 0.0840442 0.107723 0.0744978 -0.0471999 -0.187957 -0.223166 
99 -0.0759028 -0.101193 -0.161388 -0.178224 -0.0966277 0.0768894 0.250615 0.347644 0.361437 0.325228 
100 0.103478 0.110607 0.112679 0.118876 0.115033 0.0960726 0.0629164 0.0213847 -0.0261414 -0.0907511 
101 0.119518 0.126085 0.12864 0.136647 0.134006 0.112966 0.0744804 0.0283912 -0.0143274 -0.0565257 
102 0.0309571 0.02422 0.0156171 0.0436319 0.0846672 0.0660792 -0.0559103 -0.197019 -0.206414 -0.0736226 
103 -0.0477668 -0.0437648 -0.0249289 -0.00351077 -0.0389896 -0.125835 -0.173706 -0.101575 0.0581239 0.19251 
104 0.0412066 0.0508069 0.0471169 0.0410237 0.0357015 0.0420853 0.0384995 -0.0249875 -0.156169 -0.264707 
105 -0.0802871 -0.0579551 -0.0427079 -0.0641766 -0.135043 -0.169587 -0.0795005 0.0842697 0.223255 0.280906 
106 0.0503977 0.0609493 0.0645654 0.0650028 0.0508004 0.0339911 0.0274247 0.00816641 -0.07328 -0.221391 
107 -0.0240929 -0.020767 -0.0269969 -0.0165429 0.00383057 -0.00899336 -0.0969288 -0.219516 -0.240322 -0.0957717 
108 -0.137341 -0.221495 -0.308855 -0.261767 -0.0810264 0.137114 0.304424 0.377931 0.372015 0.326825 
109 0.0814674 0.0878967 0.0895561 0.0967613 0.0951295 0.0772469 0.0406457 -0.0107612 -0.0664119 -0.113283 
110 -0.0169317 -0.00906439 -0.0132491 -0.0145662 -0.00819438 -0.00065801 -0.0370895 -0.150897 -0.271504 -0.249254 
111 -0.0624615 -0.062068 -0.063872 -0.0457323 -0.0429147 -0.0967254 -0.179904 -0.19591 -0.0862953 0.0790268 
112 -0.121461 -0.0908524 -0.0947241 -0.142796 -0.208698 -0.22269 -0.11416 0.0831085 0.235287 0.285619 
113 0.000104116 0.00916334 0.01388 0.0189814 0.00794191 -0.0166567 -0.0394266 -0.0593852 -0.112003 -0.225874 
114 -0.120798 -0.0968317 -0.0760509 -0.0798058 -0.133209 -0.212994 -0.24687 -0.149082 0.0346393 0.177694 
115 -0.13723 -0.196264 -0.318167 -0.350048 -0.21208 0.0118719 0.213904 0.334482 0.359806 0.325697 
116 -0.115188 -0.0924221 -0.180604 -0.328141 -0.35576 -0.191197 0.0344734 0.22314 0.314534 0.315141 
117 -0.0568173 -0.0510477 -0.0501592 -0.0430639 -0.0400432 -0.0484591 -0.0899675 -0.180142 -0.282907 -0.299285 
118 0.0326908 0.0383691 0.0396519 0.0480183 0.0484279 0.0301677 -0.0111982 -0.0660266 -0.113454 -0.144226 
119 -0.00464065 0.00240172 0.00723594 0.0167316 0.010919 -0.0170234 -0.0558242 -0.0863376 -0.113682 -0.178663 
120 -0.0480028 -0.0403676 -0.0396934 -0.0375907 -0.0435707 -0.0509229 -0.0634976 -0.117156 -0.239776 -0.372745 
121 -0.15628 -0.133787 -0.106069 -0.10087 -0.156961 -0.22772 -0.262184 -0.219073 -0.0692481 0.106755 
122 -0.184017 -0.147961 -0.202539 -0.329624 -0.405525 -0.257108 0.00674636 0.196281 0.286905 0.301587 
123 -0.245226 -0.321143 -0.42184 -0.370419 -0.130174 0.130534 0.30038 0.370308 0.366993 0.325355 
124 -0.113251 -0.123456 -0.133229 -0.102345 -0.0514066 -0.0527512 -0.167804 -0.333567 -0.381762 -0.254265 
125 -0.00279431 0.00402287 0.0057213 0.0121214 0.00943293 -0.00795592 -0.0415053 -0.0900438 -0.149115 -0.207633 
126 -0.204737 -0.151232 -0.142177 -0.215849 -0.350031 -0.369047 -0.180499 0.0238366 0.166267 0.244439 
127 -0.161714 -0.158871 -0.126822 -0.0743011 -0.0833129 -0.205834 -0.34033 -0.349481 -0.233564 -0.0452921 
128 -0.238915 -0.265941 -0.36811 -0.433736 -0.298652 -0.0237462 0.202002 0.316012 0.344507 0.320067 
129 -0.0920137 -0.0861052 -0.0868547 -0.0809566 -0.0802103 -0.0912234 -0.117044 -0.175882 -0.278717 -0.37664 
130 -0.0688789 -0.0619077 -0.0573574 -0.0481285 -0.0536742 -0.080061 -0.117642 -0.150053 -0.18244 -0.250776 
131 -0.248461 -0.205696 -0.175924 -0.212419 -0.322323 -0.417536 -0.316082 -0.0496455 0.167815 0.259045 
132 -0.130008 -0.12761 -0.138667 -0.134955 -0.112124 -0.0960152 -0.137457 -0.266888 -0.403273 -0.383448 
133 -0.106802 -0.0983818 -0.0991237 -0.0986471 -0.101817 -0.108385 -0.126953 -0.169738 -0.262409 -0.382671 
134 -0.0637636 -0.0580055 -0.0562202 -0.0471991 -0.0471562 -0.0669966 -0.108534 -0.159356 -0.202475 -0.24025 
135 -0.293715 -0.334249 -0.408033 -0.438123 -0.313007 -0.0375168 0.215968 0.347379 0.367053 0.328276 
136 -0.228285 -0.213296 -0.157804 -0.113985 -0.177503 -0.347786 -0.479817 -0.366595 -0.0910748 0.118787 
137 -0.261053 -0.255443 -0.307264 -0.397779 -0.439768 -0.30906 -0.0588803 0.178445 0.299193 0.31164 
138 -0.170387 -0.165429 -0.178197 -0.182971 -0.160765 -0.125107 -0.154911 -0.294871 -0.462892 -0.473192 
139 -0.357113 -0.400889 -0.434353 -0.375631 -0.191396 0.07096 0.284722 0.379253 0.377482 0.33047 
140 -0.157571 -0.144707 -0.144855 -0.156587 -0.173674 -0.161426 -0.134068 -0.180162 -0.348305 -0.537947 
141 -0.101218 -0.094526 -0.0928517 -0.0853291 -0.0857985 -0.102249 -0.138228 -0.189057 -0.242312 -0.287474 
142 -0.240674 -0.249114 -0.24178 -0.202681 -0.196419 -0.273548 -0.40273 -0.434553 -0.25085 0.00808859 
143 -0.302196 -0.302433 -0.33033 -0.376732 -0.412467 -0.34065 -0.130308 0.104627 0.254555 0.29774 
144 -0.219509 -0.220069 -0.224708 -0.198545 -0.167704 -0.20427 -0.346204 -0.494108 -0.47464 -0.264788 
145 -0.347731 -0.377154 -0.419662 -0.414017 -0.315059 -0.119107 0.110407 0.279453 0.34283 0.325639 
146 -0.284304 -0.271225 -0.278029 -0.312472 -0.386976 -0.435972 -0.362497 -0.178361 0.0363824 0.193981 
147 -0.194128 -0.18587 -0.180466 -0.174878 -0.187612 -0.210202 -0.223234 -0.245737 -0.322917 -0.452404 
148 -0.144419 -0.138181 -0.136112 -0.127522 -0.128543 -0.150017 -0.192772 -0.241751 -0.279773 -0.315862 
149 -0.272828 -0.265414 -0.262304 -0.248589 -0.241721 -0.282045 -0.388384 -0.486015 -0.447602 -0.255716 
150 -0.185295 -0.178551 -0.17469 -0.166643 -0.174863 -0.202638 -0.228148 -0.239675 -0.281358 -0.409009 
151 -0.257323 -0.250726 -0.248403 -0.239772 -0.232854 -0.24206 -0.308203 -0.440298 -0.526892 -0.449129 
152 -0.372767 -0.425519 -0.489679 -0.459747 -0.29402 -0.0493313 0.175603 0.312425 0.351061 0.32494 
153 -0.322936 -0.30033 -0.303828 -0.340325 -0.408519 -0.453102 -0.387372 -0.200495 0.0103737 0.161414 
154 -0.161594 -0.155134 -0.153564 -0.14661 -0.148253 -0.165669 -0.201955 -0.253839 -0.310372 -0.359994 
155 -0.329247 -0.305644 -0.281658 -0.278354 -0.337926 -0.453556 -0.523152 -0.424458 -0.204865 0.00847775 
156 -0.234043 -0.227472 -0.223846 -0.215345 -0.221552 -0.248529 -0.280814 -0.296709 -0.327196 -0.443808 
157 -0.346616 -0.325339 -0.369775 -0.46377 -0.517292 -0.421933 -0.202348 0.0357508 0.20539 0.275079 
158 -0.368123 -0.397897 -0.476064 -0.511899 -0.418615 -0.196691 0.0522611 0.234526 0.315991 0.315602 
159 -0.294085 -0.288457 -0.286793 -0.276677 -0.273302 -0.287341 -0.339751 -0.452446 -0.570352 -0.525781 
160 -0.208019 -0.201577 -0.200185 -0.193017 -0.193681 -0.21072 -0.249811 -0.306015 -0.3579 -0.38655 
161 -0.36427 -0.348695 -0.323146 -0.313241 -0.365792 -0.466036 -0.530066 -0.447838 -0.20373 0.0549205 
162 -0.238907 -0.232913 -0.230736 -0.221644 -0.223198 -0.246655 -0.289232 -0.328807 -0.351965 -0.401191 
163 -0.277397 -0.270273 -0.270075 -0.264603 -0.26309 -0.270041 -0.291661 -0.359837 -0.520075 -0.672985 
164 -0.383554 -0.352931 -0.348474 -0.397131 -0.483212 -0.495318 -0.367939 -0.153839 0.0687274 0.21502 
165 -0.340059 -0.334847 -0.332236 -0.314185 -0.306812 -0.346178 -0.443837 -0.550149 -0.565037 -0.391787 
166 -0.363127 -0.360419 -0.34326 -0.310336 -0.322063 -0.413596 -0.536238 -0.561846 -0.413659 -0.143347 
167 -0.437538 -0.492056 -0.557488 -0.522037 -0.328813 -0.0514351 0.187982 0.323172 0.356151 0.32607 
168 -0.230541 -0.223761 -0.22181 -0.215173 -0.218043 -0.235679 -0.268764 -0.316733 -0.376839 -0.435996 
169 -0.283068 -0.276651 -0.274388 -0.265965 -0.268796 -0.291771 -0.329283 -0.363993 -0.393169 -0.456711 
170 -0.323208 -0.315714 -0.313815 -0.308236 -0.306437 -0.314624 -0.351547 -0.42974 -0.542577 -0.653879 
171 -0.402895 -0.374728 -0.371138 -0.422369 -0.516103 -0.533141 -0.373905 -0.106229 0.131933 0.251913 
172 -0.421902 -0.442243 -0.505979 -0.549241 -0.485899 -0.283498 -0.0208271 0.192994 0.301108 0.312241 
173 -0.355807 -0.348277 -0.34625 -0.333385 -0.322629 -0.342344 -0.41693 -0.526118 -0.597641 -0.5546 
174 -0.32119 -0.314959 -0.311359 -0.304824 -0.30914 -0.321048 -0.345131 -0.400302 -0.492014 -0.612236 
175 -0.276234 -0.269475 -0.267748 -0.260195 -0.261136 -0.279627 -0.318689 -0.369276 -0.413704 -0.448504 
176 -0.393964 -0.392941 -0.380998 -0.340872 -0.342765 -0.443673 -0.570236 -0.571059 -0.360802 -0.054903 
177 -0.414456 -0.394 -0.365475 -0.36095 -0.445634 -0.570309 -0.555315 -0.355513 -0.0793486 0.144147 
178 -0.438505 -0.460997 -0.5274 -0.57524 -0.51477 -0.320599 -0.0561832 0.176216 0.296537 0.310331 
179 -0.30418 -0.29671 -0.293974 -0.286076 -0.287059 -0.303641 -0.338159 -0.386993 -0.439534 -0.483402 
180 -0.387202 -0.379979 -0.377239 -0.365784 -0.349533 -0.354974 -0.438542 -0.587864 -0.654563 -0.504707 
181 -0.402617 -0.394245 -0.39343 -0.376641 -0.362792 -0.409713 -0.52875 -0.597401 -0.500192 -0.246955 
182 -0.475104 -0.516094 -0.572574 -0.548152 -0.351846 -0.0541525 0.194664 0.331023 0.35903 0.325146 
183 -0.438596 -0.411722 -0.391157 -0.402401 -0.48253 -0.590952 -0.586315 -0.34453 -0.0236444 0.181751 
184 -0.358443 -0.354198 -0.352012 -0.343074 -0.345463 -0.357659 -0.377167 -0.439253 -0.57136 -0.686188 
185 -0.434063 -0.41742 -0.448598 -0.536781 -0.622728 -0.55854 -0.338187 -0.0516417 0.176787 0.272778 
186 -0.333352 -0.326141 -0.324255 -0.317914 -0.321239 -0.341696 -0.379068 -0.421315 -0.459249 -0.511156 
187 -0.436616 -0.423802 -0.408972 -0.393505 -0.412039 -0.49674 -0.613454 -0.589679 -0.332588 -0.043429 
188 -0.39079 -0.385402 -0.382304 -0.374569 -0.373704 -0.37645 -0.403622 -0.501107 -0.644006 -0.657386 
189 -0.466906 -0.489227 -0.543603 -0.580027 -0.496844 -0.214027 0.111211 0.307515 0.358028 0.328313 
190 -0.356686 -0.351653 -0.352078 -0.34371 -0.344122 -0.363492 -0.390623 -0.419534 -0.495438 -0.647204 
191 -0.455018 -0.455598 -0.496733 -0.570791 -0.636587 -0.553005 -0.239425 0.0907087 0.272503 0.311627 
192 -0.44652 -0.436723 -0.419869 -0.4083 -0.433721 -0.495762 -0.576274 -0.606288 -0.445962 -0.147285 
193 -0.344792 -0.338195 -0.336071 -0.329072 -0.331879 -0.350703 -0.387033 -0.437767 -0.494173 -0.54676 
194 -0.471798 -0.485508 -0.51496 -0.501299 -0.37228 -0.110967 0.166138 0.327555 0.365434 0.332411 
195 -0.412602 -0.407973 -0.40645 -0.393406 -0.38845 -0.406985 -0.44911 -0.512529 -0.605512 -0.676296 
196 -0.466681 -0.45671 -0.461258 -0.485404 -0.533396 -0.552593 -0.419477 -0.128884 0.142043 0.273986 
197 -0.433719 -0.434313 -0.426714 -0.396357 -0.38587 -0.430752 -0.532577 -0.656563 -0.689656 -0.505699 
198 -0.394231 -0.387641 -0.389761 -0.383915 -0.37838 -0.387405 -0.422185 -0.475204 -0.548132 -0.675566 
199 -0.460351 -0.45488 -0.450283 -0.461734 -0.511447 -0.572 -0.576149 -0.438801 -0.169354 0.0904155 
200 -0.468082 -0.464326 -0.482058 -0.502943 -0.486108 -0.358695 -0.120082 0.133171 0.290478 0.324422 
201 -0.386697 -0.37896 -0.375128 -0.368049 -0.373278 -0.392327 -0.420076 -0.456048 -0.507411 -0.582077 
202 -0.408708 -0.399624 -0.398627 -0.396445 -0.397881 -0.403984 -0.429918 -0.487523 -0.561698 -0.634561 
203 -0.44396 -0.444116 -0.45089 -0.434077 -0.4124 -0.435126 -0.524018 -0.634291 -0.686946 -0.568568 
204 -0.455779 -0.458533 -0.457841 -0.44925 -0.473875 -0.533855 -0.577131 -0.545309 -0.392149 -0.142736 
205 -0.404631 -0.396868 -0.392483 -0.382284 -0.383115 -0.401463 -0.432806 -0.467932 -0.505207 -0.554413 
206 -0.47901 -0.486528 -0.502821 -0.492344 -0.41258 -0.220024 0.0309807 0.234186 0.331282 0.3303 
207 -0.44005 -0.431435 -0.429785 -0.429785 -0.434633 -0.432283 -0.440089 -0.50809 -0.646714 -0.762122 
208 -0.458849 -0.457146 -0.46282 -0.462875 -0.497439 -0.575404 -0.621669 -0.543519 -0.338227 -0.0620581 
209 -0.445883 -0.437258 -0.44398 -0.446596 -0.436514 -0.432223 -0.487055 -0.608114 -0.706551 -0.694529 
210 -0.474816 -0.479004 -0.496346 -0.504742 -0.47937 -0.355378 -0.109329 0.133327 0.277797 0.316262 
211 -0.468845 -0.465074 -0.473179 -0.488472 -0.524186 -0.547263 -0.43953 -0.191294 0.0513254 0.212368 
212 -0.421769 -0.415472 -0.413622 -0.406599 -0.410106 -0.431173 -0.46818 -0.513299 -0.561501 -0.616986 
213 -0.440776 -0.433702 -0.43028 -0.425507 -0.435464 -0.453463 -0.468857 -0.501492 -0.588162 -0.718927 
214 -0.460886 -0.451927 -0.456672 -0.45152 -0.453434 -0.51355 -0.636355 -0.685247 -0.55545 -0.304861 
215 -0.460351 -0.44664 -0.448762 -0.454527 -0.457718 -0.471846 -0.554922 -0.698664 -0.745309 -0.58578 
216 -0.424144 -0.41789 -0.41628 -0.409209 -0.41175 -0.431682 -0.469785 -0.519088 -0.57056 -0.620352 
217 -0.470993 -0.465741 -0.471538 -0.479787 -0.499764 -0.516653 -0.47601 -0.278723 0.00845172 0.206452 
218 -0.477024 -0.4879 -0.508446 -0.502246 -0.406518 -0.165257 0.120566 0.312414 0.372719 0.342992 
219 -0.454074 -0.44704 -0.442661 -0.43495 -0.444046 -0.468605 -0.488957 -0.510235 -0.581372 -0.718072 
220 -0.465799 -0.451845 -0.443508 -0.44271 -0.460802 -0.483174 -0.516052 -0.604017 -0.724092 -0.705717 
221 -0.471126 -0.461467 -0.461036 -0.460874 -0.479573 -0.529368 -0.593441 -0.573505 -0.347346 -0.0411605 
222 -0.453834 -0.447969 -0.445396 -0.435396 -0.437934 -0.465548 -0.507002 -0.534018 -0.557283 -0.642392 
223 -0.464558 -0.463051 -0.477459 -0.500421 -0.537606 -0.52824 -0.353703 -0.0422462 0.22091 0.320026 
224 -0.445282 -0.438872 -0.437275 -0.429353 -0.429634 -0.448989 -0.491659 -0.543426 -0.580565 -0.609572 
225 -0.470056 -0.477211 -0.495923 -0.507276 -0.480694 -0.331202 -0.0433379 0.22756 0.356093 0.35108 
226 -0.47614 -0.465369 -0.455688 -0.444775 -0.455496 -0.493609 -0.551631 -0.62416 -0.697629 -0.686671 
227 -0.474907 -0.46384 -0.46019 -0.459357 -0.475207 -0.505243 -0.54022 -0.559705 -0.496063 -0.280432 
228 -0.454379 -0.447622 -0.445759 -0.438748 -0.44043 -0.457497 -0.493123 -0.544501 -0.599542 -0.645719 
229 -0.46913 -0.463051 -0.461475 -0.45281 -0.45331 -0.47607 -0.520454 -0.560455 -0.583941 -0.65352 
230 -0.474545 -0.491181 -0.503693 -0.481505 -0.370529 -0.142855 0.109451 0.289689 0.356287 0.336702 
231 -0.464366 -0.461403 -0.469192 -0.477612 -0.495203 -0.506393 -0.444311 -0.234889 0.0473423 0.23894 
232 -0.476029 -0.470014 -0.463486 -0.447752 -0.446571 -0.475589 -0.530048 -0.590484 -0.653387 -0.721546 
233 -0.46664 -0.459968 -0.45811 -0.450406 -0.449944 -0.466159 -0.509076 -0.573533 -0.622528 -0.632085 
234 -0.466701 -0.456046 -0.45627 -0.462877 -0.493277 -0.546187 -0.582916 -0.520959 -0.313915 -0.0354757 
235 -0.456713 -0.473159 -0.490828 -0.495582 -0.47979 -0.372364 -0.159034 0.0628415 0.228484 0.301356 
236 -0.472583 -0.466484 -0.464821 -0.457287 -0.45783 -0.472852 -0.50644 -0.562314 -0.635566 -0.699002 
237 -0.442299 -0.463584 -0.491095 -0.484923 -0.445554 -0.36369 -0.194987 0.0445292 0.240178 0.314592 
238 -0.470924 -0.464321 -0.462692 -0.456369 -0.459625 -0.477465 -0.509058 -0.552663 -0.609026 -0.673745 
239 -0.47733 -0.471299 -0.464841 -0.448564 -0.443387 -0.46702 -0.532689 -0.636265 -0.725447 -0.691073 
240 -0.446396 -0.483002 -0.505594 -0.449761 -0.309213 -0.122709 0.0796786 0.260209 0.351167 0.34235 
241 -0.468617 -0.457012 -0.450363 -0.443811 -0.457125 -0.499 -0.561107 -0.597964 -0.519718 -0.291359 
242 -0.477237 -0.473324 -0.472955 -0.462372 -0.454807 -0.462356 -0.497356 -0.567249 -0.671101 -0.786782 
243 -0.425731 -0.426957 -0.460945 -0.502208 -0.518592 -0.48673 -0.406257 -0.243832 -0.013374 0.188184 
244 -0.452164 -0.43317 -0.426285 -0.437189 -0.481581 -0.539469 -0.565642 -0.51181 -0.35038 -0.0974028 
245 -0.47241 -0.467776 -0.465469 -0.453559 -0.448756 -0.46402 -0.507922 -0.584337 -0.683879 -0.747173 
246 -0.419206 -0.464256 -0.517575 -0.497769 -0.342018 -0.0906792 0.140052 0.291114 0.352997 0.338163 
247 -0.47804 -0.471143 -0.469199 -0.462809 -0.466718 -0.486406 -0.52009 -0.562152 -0.610266 -0.667375 
248 -0.403283 -0.421796 -0.471116 -0.514573 -0.49578 -0.358464 -0.139959 0.0666825 0.219236 0.292944 
249 -0.475361 -0.469994 -0.470519 -0.464994 -0.464786 -0.475275 -0.501335 -0.547762 -0.618344 -0.71279 
250 -0.452825 -0.441329 -0.4327 -0.425202 -0.443406 -0.494701 -0.556079 -0.573892 -0.504534 -0.340954 
251 -0.461604 -0.453978 -0.450021 -0.441442 -0.446703 -0.476554 -0.530157 -0.591412 -0.634002 -0.613695 
252 -0.392644 -0.399408 -0.428026 -0.454179 -0.455914 -0.38734 -0.227622 -0.0229158 0.154539 0.255122 
253 -0.470053 -0.463924 -0.463342 -0.457356 -0.458352 -0.471645 -0.500883 -0.54992 -0.620978 -0.706925 
254 -0.458112 -0.451093 -0.446939 -0.436652 -0.438267 -0.46351 -0.515394 -0.581037 -0.63456 -0.6539 
255 -0.438774 -0.42604 -0.41423 -0.404221 -0.424478 -0.483724 -0.558622 -0.588622 -0.500546 -0.281419 
256 -0.398333 -0.384645 -0.399117 -0.441778 -0.50818 -0.551707 -0.512881 -0.36917 -0.159118 0.0508948 
257 -0.441923 -0.435697 -0.429668 -0.415084 -0.414819 -0.447133 -0.517617 -0.605712 -0.652577 -0.588072 
258 -0.470715 -0.463429 -0.461923 -0.457199 -0.462564 -0.480534 -0.50806 -0.543357 -0.592794 -0.669175 
259 -0.365817 -0.373303 -0.38796 -0.370933 -0.298269 -0.156 0.0319779 0.204387 0.304875 0.321412 
260 -0.431058 -0.425842 -0.422273 -0.408683 -0.404978 -0.429499 -0.489879 -0.572462 -0.641367 -0.631764 
261 -0.456671 -0.449885 -0.447782 -0.44089 -0.443927 -0.462675 -0.496485 -0.54123 -0.595015 -0.659606 
262 -0.373464 -0.355697 -0.354777 -0.379091 -0.431802 -0.466276 -0.422326 -0.274172 -0.0529194 0.14393 
263 -0.435031 -0.429894 -0.431044 -0.424258 -0.418513 -0.423797 -0.457518 -0.533683 -0.647954 -0.755885 
264 -0.345623 -0.342188 -0.357474 -0.367229 -0.347969 -0.266444 -0.112758 0.0788564 0.235684 0.30026 
265 -0.457005 -0.450365 -0.448288 -0.441125 -0.44387 -0.462973 -0.49796 -0.543399 -0.594604 -0.651738 
266 -0.40561 -0.399927 -0.391077 -0.369373 -0.367867 -0.417277 -0.511282 -0.58883 -0.578008 -0.444003 
267 -0.321185 -0.33274 -0.352533 -0.336768 -0.259532 -0.114959 0.0658705 0.229055 0.320849 0.32657 
268 -0.37816 -0.364351 -0.349631 -0.343838 -0.382903 -0.454587 -0.490567 -0.435077 -0.286038 -0.0771302 
269 -0.413756 -0.407207 -0.407296 -0.403071 -0.403022 -0.409749 -0.435441 -0.499102 -0.600634 -0.705475 
270 -0.394114 -0.389667 -0.388887 -0.375512 -0.3639 -0.379137 -0.446388 -0.55 -0.613302 -0.582823 
271 -0.447883 -0.441219 -0.439086 -0.431762 -0.434375 -0.453879 -0.490004 -0.535907 -0.584008 -0.633567 
272 -0.28775 -0.307801 -0.342362 -0.341802 -0.266424 -0.100904 0.10274 0.263801 0.336112 0.327286 
273 -0.341181 -0.329108 -0.32225 -0.321443 -0.357069 -0.423848 -0.448918 -0.348135 -0.14218 0.0687269 
274 -0.405211 -0.398322 -0.396526 -0.390993 -0.395097 -0.409993 -0.434233 -0.477058 -0.555643 -0.664444 
275 -0.367408 -0.362235 -0.359153 -0.34518 -0.334041 -0.348831 -0.423927 -0.549537 -0.621743 -0.511077 
276 -0.343978 -0.333204 -0.3236 -0.308749 -0.31763 -0.381224 -0.486055 -0.518473 -0.382929 -0.142215 
277 -0.421446 -0.414696 -0.412591 -0.405888 -0.410007 -0.43034 -0.462857 -0.499994 -0.54461 -0.614471 
278 -0.290332 -0.277076 -0.290445 -0.326893 -0.374873 -0.378367 -0.27396 -0.06271 0.150403 0.265417 
279 -0.265719 -0.273179 -0.308765 -0.336935 -0.318363 -0.208311 -0.0128947 0.187997 0.305803 0.322275 
280 -0.355655 -0.350416 -0.348842 -0.34038 -0.338668 -0.347893 -0.380467 -0.4657 -0.59289 -0.634672 
281 -0.374824 -0.368294 -0.367088 -0.360862 -0.362942 -0.375854 -0.397847 -0.443011 -0.544793 -0.69144 
282 -0.313587 -0.30107 -0.290269 -0.28269 -0.301553 -0.352129 -0.424903 -0.458471 -0.315549 -0.0328564 
283 -0.28134 -0.264175 -0.26267 -0.279873 -0.321943 -0.354636 -0.329143 -0.205214 0.00884262 0.193269 
284 -0.410207 -0.403543 -0.40144 -0.39417 -0.396957 -0.417114 -0.454559 -0.501453 -0.548236 -0.593882 
285 -0.227723 -0.242409 -0.279288 -0.284769 -0.20349 -0.0264983 0.176262 0.319393 0.36479 0.335726 
286 -0.319558 -0.316243 -0.315014 -0.300913 -0.293808 -0.315681 -0.372502 -0.451874 -0.537524 -0.530706 
287 -0.302499 -0.295323 -0.284898 -0.269459 -0.278834 -0.321565 -0.380416 -0.442406 -0.453189 -0.27651 
288 -0.357023 -0.3504 -0.348945 -0.342364 -0.344319 -0.360764 -0.391769 -0.434438 -0.494805 -0.586946 
289 -0.376705 -0.369808 -0.367686 -0.360909 -0.364139 -0.382921 -0.415806 -0.457277 -0.506403 -0.574471 
290 -0.253 -0.230858 -0.220027 -0.240689 -0.311884 -0.374851 -0.313815 -0.111462 0.104563 0.236985 
291 -0.216894 -0.211574 -0.235655 -0.272746 -0.281707 -0.193014 -0.00643419 0.186185 0.301622 0.322176 
292 -0.302889 -0.297845 -0.29798 -0.288785 -0.28277 -0.297063 -0.349949 -0.429675 -0.494442 -0.530346 
293 -0.269034 -0.258917 -0.239485 -0.217619 -0.242688 -0.33438 -0.425558 -0.377282 -0.190924 0.0117115 
294 -0.320181 -0.31369 -0.31388 -0.309579 -0.309934 -0.317608 -0.342432 -0.401175 -0.495082 -0.591331 
295 -0.369837 -0.363052 -0.360739 -0.353334 -0.355932 -0.375061 -0.409955 -0.453754 -0.499602 -0.54909 