VARIABLES = "Cell" "Mode 0" "Mode 1" "Mode 2" "Mode 3" "Mode 4" "Mode 5" "Mode 6" "Mode 7" "Mode 8" "Mode 9" 
ZONE T = Iteration00
0 -0.00664043 1e-07 0 0 0 0 0 0 0 0 
1 -0.000719509 1e-07 0 0 0 0 0 0 0 0 
2 -0.000547845 1e-07 0 0 0 0 0 0 0 0 
3 -0.0315635 1e-07 0 0 0 0 0 0 0 0 
4 -6.82504e-06 1e-07 0 0 0 0 0 0 0 0 
5 -0.00388253 1e-07 0 0 0 0 0 0 0 0 
6 -1.67354e-06 1e-07 0 0 0 0 0 0 0 0 
7 -3.49524e-07 1e-07 0 0 0 0 0 0 0 0 
8 6.88733e-08 1e-07 0 0 0 0 0 0 0 0 
9 -6.82453e-08 1e-07 0 0 0 0 0 0 0 0 
10 9.1485e-08 1e-07 0 0 0 0 0 0 0 0 
11 4.03937e-08 1e-07 0 0 0 0 0 0 0 0 
12 -1.11978e-05 1e-07 0 0 0 0 0 0 0 0 
13 -4.70944e-06 1e-07 0 0 0 0 0 0 0 0 
14 -3.98022e-07 1e-07 0 0 0 0 0 0 0 0 
15 2.13735e-06 1e-07 0 0 0 0 0 0 0 0 
16 1.05887e-07 1e-07 0 0 0 0 0 0 0 0 
17 -0.0745359 1e-07 0 0 0 0 0 0 0 0 
18 -0.0073294 1e-07 0 0 0 0 0 0 0 0 
19 1.7617e-07 1e-07 0 0 0 0 0 0 0 0 
20 -0.033364 1e-07 0 0 0 0 0 0 0 0 
21 1.28612e-07 1e-07 0 0 0 0 0 0 0 0 
22 4.02986e-05 1e-07 0 0 0 0 0 0 0 0 
23 1.40461e-05 1e-07 0 0 0 0 0 0 0 0 
24 0.000321848 1e-07 0 0 0 0 0 0 0 0 
25 4.37614e-07 1e-07 0 0 0 0 0 0 0 0 
26 -0.0014991 1e-07 0 0 0 0 0 0 0 0 
27 3.10399e-07 1e-07 0 0 0 0 0 0 0 0 
28 2.91963e-06 1e-07 0 0 0 0 0 0 0 0 
29 0.000122762 1e-07 0 0 0 0 0 0 0 0 
30 1.18885e-06 1e-07 0 0 0 0 0 0 0 0 
31 0.000266047 1e-07 0 0 0 0 0 0 0 0 
32 -0.0449701 1e-07 0 0 0 0 0 0 0 0 
33 1.05657e-07 1e-07 0 0 0 0 0 0 0 0 
34 -0.0114272 1e-07 0 0 0 0 0 0 0 0 
35 9.71389e-08 1e-07 0 0 0 0 0 0 0 0 
36 1.0952e-07 1e-07 0 0 0 0 0 0 0 0 
37 -4.49512e-06 1e-07 0 0 0 0 0 0 0 0 
38 -0.119923 1e-07 0 0 0 0 0 0 0 0 
39 1.21229e-05 1e-07 0 0 0 0 0 0 0 0 
40 -3.13066e-06 1e-07 0 0 0 0 0 0 0 0 
41 7.62857e-05 1e-07 0 0 0 0 0 0 0 0 
42 -2.14204e-06 1e-07 0 0 0 0 0 0 0 0 
43 -0.00790315 1e-07 0 0 0 0 0 0 0 0 
44 -1.5803e-07 1e-07 0 0 0 0 0 0 0 0 
45 -0.169932 1e-07 0 0 0 0 0 0 0 0 
46 9.00194e-08 1e-07 0 0 0 0 0 0 0 0 
47 4.22891e-08 1e-07 0 0 0 0 0 0 0 0 
48 -7.06358e-05 1e-07 0 0 0 0 0 0 0 0 
49 -0.000906422 1e-07 0 0 0 0 0 0 0 0 
50 -2.70791e-07 1e-07 0 0 0 0 0 0 0 0 
51 -0.0203463 1e-07 0 0 0 0 0 0 0 0 
52 -0.0948028 1e-07 0 0 0 0 0 0 0 0 
53 1.19343e-08 1e-07 0 0 0 0 0 0 0 0 
54 6.55334e-08 1e-07 0 0 0 0 0 0 0 0 
55 2.51686e-05 1e-07 0 0 0 0 0 0 0 0 
56 0.000105552 1e-07 0 0 0 0 0 0 0 0 
57 4.45646e-06 1e-07 0 0 0 0 0 0 0 0 
58 -0.220613 1e-07 0 0 0 0 0 0 0 0 
59 -0.000788379 1e-07 0 0 0 0 0 0 0 0 
60 1.9736e-07 1e-07 0 0 0 0 0 0 0 0 
61 8.85445e-08 1e-07 0 0 0 0 0 0 0 0 
62 -0.00714084 1e-07 0 0 0 0 0 0 0 0 
63 1.11544e-05 1e-07 0 0 0 0 0 0 0 0 
64 8.22052e-08 1e-07 0 0 0 0 0 0 0 0 
65 4.91809e-05 1e-07 0 0 0 0 0 0 0 0 
66 -3.5069e-05 1e-07 0 0 0 0 0 0 0 0 
67 -0.125847 1e-07 0 0 0 0 0 0 0 0 
68 1.59409e-06 1e-07 0 0 0 0 0 0 0 0 
69 8.46804e-08 1e-07 0 0 0 0 0 0 0 0 
70 -0.0299788 1e-07 0 0 0 0 0 0 0 0 
71 3.03241e-08 1e-07 0 0 0 0 0 0 0 0 
72 -8.06633e-05 1e-07 0 0 0 0 0 0 0 0 
73 -0.28144 1e-07 0 0 0 0 0 0 0 0 
74 6.15883e-08 1e-07 0 0 0 0 0 0 0 0 
75 -0.000273044 1e-07 0 0 0 0 0 0 0 0 
76 9.66533e-06 1e-07 0 0 0 0 0 0 0 0 
77 1.60388e-06 1e-07 0 0 0 0 0 0 0 0 
78 -1.01723e-07 1e-07 0 0 0 0 0 0 0 0 
79 -0.0114009 1e-07 0 0 0 0 0 0 0 0 
80 1.37155e-07 1e-07 0 0 0 0 0 0 0 0 
81 -0.00117582 1e-07 0 0 0 0 0 0 0 0 
82 0.00026217 1e-07 0 0 0 0 0 0 0 0 
83 3.90133e-09 1e-07 0 0 0 0 0 0 0 0 
84 6.58583e-05 1e-07 0 0 0 0 0 0 0 0 
85 -0.133909 1e-07 0 0 0 0 0 0 0 0 
86 -2.22203e-07 1e-07 0 0 0 0 0 0 0 0 
87 -0.0268382 1e-07 0 0 0 0 0 0 0 0 
88 6.97938e-07 1e-07 0 0 0 0 0 0 0 0 
89 5.08554e-08 1e-07 0 0 0 0 0 0 0 0 
90 0.00211864 1e-07 0 0 0 0 0 0 0 0 
91 -7.77648e-07 1e-07 0 0 0 0 0 0 0 0 
92 0.00135656 1e-07 0 0 0 0 0 0 0 0 
93 -0.31546 1e-07 0 0 0 0 0 0 0 0 
94 1.85963e-05 1e-07 0 0 0 0 0 0 0 0 
95 -0.00361824 1e-07 0 0 0 0 0 0 0 0 
96 -1.48276e-06 1e-07 0 0 0 0 0 0 0 0 
97 3.34225e-05 1e-07 0 0 0 0 0 0 0 0 
98 0.000691166 1e-07 0 0 0 0 0 0 0 0 
99 6.40032e-08 1e-07 0 0 0 0 0 0 0 0 
100 -0.021175 1e-07 0 0 0 0 0 0 0 0 
101 -0.135483 1e-07 0 0 0 0 0 0 0 0 
102 0.000164088 1e-07 0 0 0 0 0 0 0 0 
103 2.98067e-06 1e-07 0 0 0 0 0 0 0 0 
104 0.00109648 1e-07 0 0 0 0 0 0 0 0 
105 -2.63875e-06 1e-07 0 0 0 0 0 0 0 0 
106 -0.00249009 1e-07 0 0 0 0 0 0 0 0 
107 0.000153612 1e-07 0 0 0 0 0 0 0 0 
108 7.48818e-09 1e-07 0 0 0 0 0 0 0 0 
109 -0.377772 1e-07 0 0 0 0 0 0 0 0 
110 0.000552667 1e-07 0 0 0 0 0 0 0 0 
111 3.37995e-05 1e-07 0 0 0 0 0 0 0 0 
112 -1.28791e-06 1e-07 0 0 0 0 0 0 0 0 
113 -0.00606351 1e-07 0 0 0 0 0 0 0 0 
114 1.38273e-05 1e-07 0 0 0 0 0 0 0 0 
115 -3.89294e-07 1e-07 0 0 0 0 0 0 0 0 
116 -2.07899e-06 1e-07 0 0 0 0 0 0 0 0 
117 0.000888008 1e-07 0 0 0 0 0 0 0 0 
118 -0.212663 1e-07 0 0 0 0 0 0 0 0 
119 -0.0424176 1e-07 0 0 0 0 0 0 0 0 
120 0.00176768 1e-07 0 0 0 0 0 0 0 0 
121 5.32888e-05 1e-07 0 0 0 0 0 0 0 0 
122 -3.38268e-06 1e-07 0 0 0 0 0 0 0 0 
123 -5.95141e-07 1e-07 0 0 0 0 0 0 0 0 
124 0.000387072 1e-07 0 0 0 0 0 0 0 0 
125 -0.566745 1e-07 0 0 0 0 0 0 0 0 
126 1.2697e-05 1e-07 0 0 0 0 0 0 0 0 
127 8.95892e-05 1e-07 0 0 0 0 0 0 0 0 
128 -1.83471e-06 1e-07 0 0 0 0 0 0 0 0 
129 0.00261971 1e-07 0 0 0 0 0 0 0 0 
130 -0.035081 1e-07 0 0 0 0 0 0 0 0 
131 -8.95024e-07 1e-07 0 0 0 0 0 0 0 0 
132 0.00116933 1e-07 0 0 0 0 0 0 0 0 
133 1.90112e-05 1e-07 0 0 0 0 0 0 0 0 
134 -0.217668 1e-07 0 0 0 0 0 0 0 0 
135 -9.35947e-07 1e-07 0 0 0 0 0 0 0 0 
136 1.36832e-05 1e-07 0 0 0 0 0 0 0 0 
137 -2.05864e-06 1e-07 0 0 0 0 0 0 0 0 
138 0.000729039 1e-07 0 0 0 0 0 0 0 0 
139 -1.37013e-07 1e-07 0 0 0 0 0 0 0 0 
140 0.00176179 1e-07 0 0 0 0 0 0 0 0 
141 -0.475243 1e-07 0 0 0 0 0 0 0 0 
142 3.36578e-05 1e-07 0 0 0 0 0 0 0 0 
143 -2.93531e-06 1e-07 0 0 0 0 0 0 0 0 
144 0.000217872 1e-07 0 0 0 0 0 0 0 0 
145 -2.02868e-07 1e-07 0 0 0 0 0 0 0 0 
146 3.76239e-07 1e-07 0 0 0 0 0 0 0 0 
147 0.00327262 1e-07 0 0 0 0 0 0 0 0 
148 -0.211961 1e-07 0 0 0 0 0 0 0 0 
149 0.000521602 1e-07 0 0 0 0 0 0 0 0 
150 -0.0112712 1e-07 0 0 0 0 0 0 0 0 
151 0.0016011 1e-07 0 0 0 0 0 0 0 0 
152 -1.42836e-06 1e-07 0 0 0 0 0 0 0 0 
153 0.000201112 1e-07 0 0 0 0 0 0 0 0 
154 -0.595024 1e-07 0 0 0 0 0 0 0 0 
155 9.3378e-05 1e-07 0 0 0 0 0 0 0 0 
156 -0.0138843 1e-07 0 0 0 0 0 0 0 0 
157 8.95465e-06 1e-07 0 0 0 0 0 0 0 0 
158 -4.89092e-06 1e-07 0 0 0 0 0 0 0 0 
159 -0.000240659 1e-07 0 0 0 0 0 0 0 0 
160 -0.307418 1e-07 0 0 0 0 0 0 0 0 
161 0.00027586 1e-07 0 0 0 0 0 0 0 0 
162 -0.0690369 1e-07 0 0 0 0 0 0 0 0 
163 -0.000958489 1e-07 0 0 0 0 0 0 0 0 
164 -3.83123e-05 1e-07 0 0 0 0 0 0 0 0 
165 0.000292514 1e-07 0 0 0 0 0 0 0 0 
166 0.000730287 1e-07 0 0 0 0 0 0 0 0 
167 -1.31845e-06 1e-07 0 0 0 0 0 0 0 0 
168 -0.777586 1e-07 0 0 0 0 0 0 0 0 
169 -0.045066 1e-07 0 0 0 0 0 0 0 0 
170 0.00420321 1e-07 0 0 0 0 0 0 0 0 
171 -9.5703e-06 1e-07 0 0 0 0 0 0 0 0 
172 -1.39994e-06 1e-07 0 0 0 0 0 0 0 0 
173 0.00238945 1e-07 0 0 0 0 0 0 0 0 
174 0.00488248 1e-07 0 0 0 0 0 0 0 0 
175 -0.296832 1e-07 0 0 0 0 0 0 0 0 
176 0.000296817 1e-07 0 0 0 0 0 0 0 0 
177 2.14211e-05 1e-07 0 0 0 0 0 0 0 0 
178 3.29257e-06 1e-07 0 0 0 0 0 0 0 0 
179 -0.628903 1e-07 0 0 0 0 0 0 0 0 
180 0.00150857 1e-07 0 0 0 0 0 0 0 0 
181 0.000323333 1e-07 0 0 0 0 0 0 0 0 
182 9.09636e-07 1e-07 0 0 0 0 0 0 0 0 
183 1.41233e-05 1e-07 0 0 0 0 0 0 0 0 
184 0.00686663 1e-07 0 0 0 0 0 0 0 0 
185 1.01466e-05 1e-07 0 0 0 0 0 0 0 0 
186 -0.269031 1e-07 0 0 0 0 0 0 0 0 
187 1.22343e-05 1e-07 0 0 0 0 0 0 0 0 
188 0.00389491 1e-07 0 0 0 0 0 0 0 0 
189 1.10575e-06 1e-07 0 0 0 0 0 0 0 0 
190 -0.0296152 1e-07 0 0 0 0 0 0 0 0 
191 8.46127e-07 1e-07 0 0 0 0 0 0 0 0 
192 8.45442e-05 1e-07 0 0 0 0 0 0 0 0 
193 -0.78915 1e-07 0 0 0 0 0 0 0 0 
194 -8.76784e-08 1e-07 0 0 0 0 0 0 0 0 
195 0.00153176 1e-07 0 0 0 0 0 0 0 0 
196 -2.85789e-05 1e-07 0 0 0 0 0 0 0 0 
197 0.00114716 1e-07 0 0 0 0 0 0 0 0 
198 -0.00513787 1e-07 0 0 0 0 0 0 0 0 
199 3.10941e-05 1e-07 0 0 0 0 0 0 0 0 
200 -6.32626e-06 1e-07 0 0 0 0 0 0 0 0 
201 -0.248528 1e-07 0 0 0 0 0 0 0 0 
202 -0.0176495 1e-07 0 0 0 0 0 0 0 0 
203 0.00433351 1e-07 0 0 0 0 0 0 0 0 
204 0.00094636 1e-07 0 0 0 0 0 0 0 0 
205 -0.628453 1e-07 0 0 0 0 0 0 0 0 
206 -7.39889e-06 1e-07 0 0 0 0 0 0 0 0 
207 0.0215402 1e-07 0 0 0 0 0 0 0 0 
208 0.000305794 1e-07 0 0 0 0 0 0 0 0 
209 0.0140117 1e-07 0 0 0 0 0 0 0 0 
210 -2.31071e-05 1e-07 0 0 0 0 0 0 0 0 
211 -3.85974e-07 1e-07 0 0 0 0 0 0 0 0 
212 -0.258183 1e-07 0 0 0 0 0 0 0 0 
213 -0.0149713 1e-07 0 0 0 0 0 0 0 0 
214 0.00178387 1e-07 0 0 0 0 0 0 0 0 
215 0.0036709 1e-07 0 0 0 0 0 0 0 0 
216 -0.830612 1e-07 0 0 0 0 0 0 0 0 
217 3.405e-05 1e-07 0 0 0 0 0 0 0 0 
218 -7.66485e-06 1e-07 0 0 0 0 0 0 0 0 
219 -0.0104241 1e-07 0 0 0 0 0 0 0 0 
220 -7.42579e-06 1e-07 0 0 0 0 0 0 0 0 
221 0.000608746 1e-07 0 0 0 0 0 0 0 0 
222 -0.0628779 1e-07 0 0 0 0 0 0 0 0 
223 -6.0437e-05 1e-07 0 0 0 0 0 0 0 0 
224 -0.346459 1e-07 0 0 0 0 0 0 0 0 
225 -8.59627e-06 1e-07 0 0 0 0 0 0 0 0 
226 0.0040787 1e-07 0 0 0 0 0 0 0 0 
227 0.00141549 1e-07 0 0 0 0 0 0 0 0 
228 -0.854926 1e-07 0 0 0 0 0 0 0 0 
229 -0.0110828 1e-07 0 0 0 0 0 0 0 0 
230 2.6342e-06 1e-07 0 0 0 0 0 0 0 0 
231 -1.69847e-05 1e-07 0 0 0 0 0 0 0 0 
232 0.0136264 1e-07 0 0 0 0 0 0 0 0 
233 -0.259194 1e-07 0 0 0 0 0 0 0 0 
234 0.000490779 1e-07 0 0 0 0 0 0 0 0 
235 -2.44828e-06 1e-07 0 0 0 0 0 0 0 0 
236 -0.269287 1e-07 0 0 0 0 0 0 0 0 
237 -6.45369e-05 1e-07 0 0 0 0 0 0 0 0 
238 -0.847114 1e-07 0 0 0 0 0 0 0 0 
239 0.00826653 1e-07 0 0 0 0 0 0 0 0 
240 -2.35221e-05 1e-07 0 0 0 0 0 0 0 0 
241 0.00167104 1e-07 0 0 0 0 0 0 0 0 
242 -0.00477777 1e-07 0 0 0 0 0 0 0 0 
243 -8.15211e-05 1e-07 0 0 0 0 0 0 0 0 
244 0.000792408 1e-07 0 0 0 0 0 0 0 0 
245 0.0212265 1e-07 0 0 0 0 0 0 0 0 
246 -8.76656e-06 1e-07 0 0 0 0 0 0 0 0 
247 -0.848933 1e-07 0 0 0 0 0 0 0 0 
248 -2.39003e-05 1e-07 0 0 0 0 0 0 0 0 
249 -0.259602 1e-07 0 0 0 0 0 0 0 0 
250 0.00448521 1e-07 0 0 0 0 0 0 0 0 
251 0.0140508 1e-07 0 0 0 0 0 0 0 0 
252 7.6483e-06 1e-07 0 0 0 0 0 0 0 0 
253 -0.143194 1e-07 0 0 0 0 0 0 0 0 
254 0.0153409 1e-07 0 0 0 0 0 0 0 0 
255 0.00150138 1e-07 0 0 0 0 0 0 0 0 
256 7.3901e-05 1e-07 0 0 0 0 0 0 0 0 
257 0.00764101 1e-07 0 0 0 0 0 0 0 0 
258 -0.61172 1e-07 0 0 0 0 0 0 0 0 
259 -1.972e-05 1e-07 0 0 0 0 0 0 0 0 
260 0.00911584 1e-07 0 0 0 0 0 0 0 0 
261 -0.227738 1e-07 0 0 0 0 0 0 0 0 
262 3.19835e-05 1e-07 0 0 0 0 0 0 0 0 
263 0.00996059 1e-07 0 0 0 0 0 0 0 0 
264 -1.86222e-05 1e-07 0 0 0 0 0 0 0 0 
265 -0.738376 1e-07 0 0 0 0 0 0 0 0 
266 0.00251715 1e-07 0 0 0 0 0 0 0 0 
267 -8.9169e-06 1e-07 0 0 0 0 0 0 0 0 
268 0.000371825 1e-07 0 0 0 0 0 0 0 0 
269 0.0100548 1e-07 0 0 0 0 0 0 0 0 
270 0.00435187 1e-07 0 0 0 0 0 0 0 0 
271 -0.741952 1e-07 0 0 0 0 0 0 0 0 
272 -5.80951e-06 1e-07 0 0 0 0 0 0 0 0 
273 3.28417e-05 1e-07 0 0 0 0 0 0 0 0 
274 -0.0225627 1e-07 0 0 0 0 0 0 0 0 
275 0.00136772 1e-07 0 0 0 0 0 0 0 0 
276 0.000157181 1e-07 0 0 0 0 0 0 0 0 
277 -0.26405 1e-07 0 0 0 0 0 0 0 0 
278 -2.12489e-05 1e-07 0 0 0 0 0 0 0 0 
279 -9.54479e-06 1e-07 0 0 0 0 0 0 0 0 
280 0.00323003 1e-07 0 0 0 0 0 0 0 0 
281 0.00523327 1e-07 0 0 0 0 0 0 0 0 
282 0.000134733 1e-07 0 0 0 0 0 0 0 0 
283 6.44787e-06 1e-07 0 0 0 0 0 0 0 0 
284 -0.73335 1e-07 0 0 0 0 0 0 0 0 
285 -5.96387e-06 1e-07 0 0 0 0 0 0 0 0 
286 0.00375831 1e-07 0 0 0 0 0 0 0 0 
287 0.000937986 1e-07 0 0 0 0 0 0 0 0 
288 -0.00169047 1e-07 0 0 0 0 0 0 0 0 
289 -0.231187 1e-07 0 0 0 0 0 0 0 0 
290 -5.8637e-06 1e-07 0 0 0 0 0 0 0 0 
291 -2.00379e-05 1e-07 0 0 0 0 0 0 0 0 
292 0.012566 1e-07 0 0 0 0 0 0 0 0 
293 0.000276818 1e-07 0 0 0 0 0 0 0 0 
294 0.0213856 1e-07 0 0 0 0 0 0 0 0 
295 -0.620516 1e-07 0 0 0 0 0 0 0 0 
296 -1.37138e-05 1e-07 0 0 0 0 0 0 0 0 
297 0.000832925 1e-07 0 0 0 0 0 0 0 0 
298 0.00382426 1e-07 0 0 0 0 0 0 0 0 
299 -0.0230437 1e-07 0 0 0 0 0 0 0 0 
300 -0.254243 1e-07 0 0 0 0 0 0 0 0 
301 -3.5033e-05 1e-07 0 0 0 0 0 0 0 0 
302 8.37523e-05 1e-07 0 0 0 0 0 0 0 0 
303 -8.73009e-05 1e-07 0 0 0 0 0 0 0 0 
304 -0.0119534 1e-07 0 0 0 0 0 0 0 0 
305 0.00260511 1e-07 0 0 0 0 0 0 0 0 
306 -0.799375 1e-07 0 0 0 0 0 0 0 0 
307 0.00248726 1e-07 0 0 0 0 0 0 0 0 
308 -4.63471e-06 1e-07 0 0 0 0 0 0 0 0 
309 0.000660457 1e-07 0 0 0 0 0 0 0 0 
310 -0.0626205 1e-07 0 0 0 0 0 0 0 0 
311 2.19126e-07 1e-07 0 0 0 0 0 0 0 0 
312 -0.324436 1e-07 0 0 0 0 0 0 0 0 
313 0.000278965 1e-07 0 0 0 0 0 0 0 0 
314 0.00543009 1e-07 0 0 0 0 0 0 0 0 
315 3.51562e-06 1e-07 0 0 0 0 0 0 0 0 
316 8.36834e-05 1e-07 0 0 0 0 0 0 0 0 
317 -0.0264741 1e-07 0 0 0 0 0 0 0 0 
318 0.00853364 1e-07 0 0 0 0 0 0 0 0 
319 -0.732345 1e-07 0 0 0 0 0 0 0 0 
320 0.00269226 1e-07 0 0 0 0 0 0 0 0 
321 1.28553e-06 1e-07 0 0 0 0 0 0 0 0 
322 0.000902277 1e-07 0 0 0 0 0 0 0 0 
323 -0.256295 1e-07 0 0 0 0 0 0 0 0 
324 0.00634592 1e-07 0 0 0 0 0 0 0 0 
325 0.00519046 1e-07 0 0 0 0 0 0 0 0 
326 7.28623e-06 1e-07 0 0 0 0 0 0 0 0 
327 -2.76156e-06 1e-07 0 0 0 0 0 0 0 0 
328 0.000203168 1e-07 0 0 0 0 0 0 0 0 
329 -0.205798 1e-07 0 0 0 0 0 0 0 0 
330 -0.0248888 1e-07 0 0 0 0 0 0 0 0 
331 7.90869e-05 1e-07 0 0 0 0 0 0 0 0 
332 -7.81596e-06 1e-07 0 0 0 0 0 0 0 0 
333 -4.66733e-07 1e-07 0 0 0 0 0 0 0 0 
334 -0.664262 1e-07 0 0 0 0 0 0 0 0 
335 0.00186223 1e-07 0 0 0 0 0 0 0 0 
336 0.000604929 1e-07 0 0 0 0 0 0 0 0 
337 -0.00662322 1e-07 0 0 0 0 0 0 0 0 
338 0.000748783 1e-07 0 0 0 0 0 0 0 0 
339 -1.98585e-06 1e-07 0 0 0 0 0 0 0 0 
340 6.98483e-06 1e-07 0 0 0 0 0 0 0 0 
341 -3.70146e-07 1e-07 0 0 0 0 0 0 0 0 
342 -0.228535 1e-07 0 0 0 0 0 0 0 0 
343 0.000210892 1e-07 0 0 0 0 0 0 0 0 
344 -0.0268222 1e-07 0 0 0 0 0 0 0 0 
345 -1.15413e-05 1e-07 0 0 0 0 0 0 0 0 
346 0.00257913 1e-07 0 0 0 0 0 0 0 0 
347 -0.558675 1e-07 0 0 0 0 0 0 0 0 
348 -1.03829e-06 1e-07 0 0 0 0 0 0 0 0 
349 0.000871187 1e-07 0 0 0 0 0 0 0 0 
350 0.000420123 1e-07 0 0 0 0 0 0 0 0 
351 0.00129889 1e-07 0 0 0 0 0 0 0 0 
352 -9.03962e-06 1e-07 0 0 0 0 0 0 0 0 
353 0.000184429 1e-07 0 0 0 0 0 0 0 0 
354 -3.90761e-06 1e-07 0 0 0 0 0 0 0 0 
355 -0.265361 1e-07 0 0 0 0 0 0 0 0 
356 -0.000843776 1e-07 0 0 0 0 0 0 0 0 
357 0.00169645 1e-07 0 0 0 0 0 0 0 0 
358 -0.0454965 1e-07 0 0 0 0 0 0 0 0 
359 0.00325478 1e-07 0 0 0 0 0 0 0 0 
360 -1.79367e-06 1e-07 0 0 0 0 0 0 0 0 
361 0.000108797 1e-07 0 0 0 0 0 0 0 0 
362 -0.662027 1e-07 0 0 0 0 0 0 0 0 
363 0.000550017 1e-07 0 0 0 0 0 0 0 0 
364 -0.0529809 1e-07 0 0 0 0 0 0 0 0 
365 0.00186948 1e-07 0 0 0 0 0 0 0 0 
366 -1.90895e-06 1e-07 0 0 0 0 0 0 0 0 
367 -0.229419 1e-07 0 0 0 0 0 0 0 0 
368 -3.52879e-06 1e-07 0 0 0 0 0 0 0 0 
369 -0.00609967 1e-07 0 0 0 0 0 0 0 0 
370 0.000145314 1e-07 0 0 0 0 0 0 0 0 
371 -7.88187e-06 1e-07 0 0 0 0 0 0 0 0 
372 -0.207637 1e-07 0 0 0 0 0 0 0 0 
373 1.32775e-05 1e-07 0 0 0 0 0 0 0 0 
374 0.00108398 1e-07 0 0 0 0 0 0 0 0 
375 0.000598253 1e-07 0 0 0 0 0 0 0 0 
376 -0.00883663 1e-07 0 0 0 0 0 0 0 0 
377 -2.55024e-06 1e-07 0 0 0 0 0 0 0 0 
378 -0.0368653 1e-07 0 0 0 0 0 0 0 0 
379 -0.510432 1e-07 0 0 0 0 0 0 0 0 
380 -0.00124352 1e-07 0 0 0 0 0 0 0 0 
381 3.91164e-05 1e-07 0 0 0 0 0 0 0 0 
382 9.58357e-07 1e-07 0 0 0 0 0 0 0 0 
383 0.000200025 1e-07 0 0 0 0 0 0 0 0 
384 -4.48782e-07 1e-07 0 0 0 0 0 0 0 0 
385 -0.0346833 1e-07 0 0 0 0 0 0 0 0 
386 -0.19462 1e-07 0 0 0 0 0 0 0 0 
387 -0.000869308 1e-07 0 0 0 0 0 0 0 0 
388 8.18646e-06 1e-07 0 0 0 0 0 0 0 0 
389 -0.00565407 1e-07 0 0 0 0 0 0 0 0 
390 0.000238489 1e-07 0 0 0 0 0 0 0 0 
391 -4.27495e-05 1e-07 0 0 0 0 0 0 0 0 
392 0.00154776 1e-07 0 0 0 0 0 0 0 0 
393 -3.35512e-07 1e-07 0 0 0 0 0 0 0 0 
394 -0.390231 1e-07 0 0 0 0 0 0 0 0 
395 -1.10204e-05 1e-07 0 0 0 0 0 0 0 0 
396 -1.20143e-05 1e-07 0 0 0 0 0 0 0 0 
397 -0.00285576 1e-07 0 0 0 0 0 0 0 0 
398 0.000958173 1e-07 0 0 0 0 0 0 0 0 
399 -1.17838e-06 1e-07 0 0 0 0 0 0 0 0 
400 0.000280799 1e-07 0 0 0 0 0 0 0 0 
401 -3.96461e-06 1e-07 0 0 0 0 0 0 0 0 
402 -0.140766 1e-07 0 0 0 0 0 0 0 0 
403 0.000635118 1e-07 0 0 0 0 0 0 0 0 
404 8.00889e-07 1e-07 0 0 0 0 0 0 0 0 
405 -0.02251 1e-07 0 0 0 0 0 0 0 0 
406 -2.71641e-06 1e-07 0 0 0 0 0 0 0 0 
407 -6.23144e-06 1e-07 0 0 0 0 0 0 0 0 
408 0.00140825 1e-07 0 0 0 0 0 0 0 0 
409 -1.43406e-07 1e-07 0 0 0 0 0 0 0 0 
410 -0.00390642 1e-07 0 0 0 0 0 0 0 0 
411 -0.316184 1e-07 0 0 0 0 0 0 0 0 
412 -4.88085e-06 1e-07 0 0 0 0 0 0 0 0 
413 0.00219062 1e-07 0 0 0 0 0 0 0 0 
414 -1.75614e-07 1e-07 0 0 0 0 0 0 0 0 
415 -0.0271501 1e-07 0 0 0 0 0 0 0 0 
416 0.000277274 1e-07 0 0 0 0 0 0 0 0 
417 1.18034e-07 1e-07 0 0 0 0 0 0 0 0 
418 1.20388e-05 1e-07 0 0 0 0 0 0 0 0 
419 -0.134604 1e-07 0 0 0 0 0 0 0 0 
420 5.84242e-06 1e-07 0 0 0 0 0 0 0 0 
421 -0.00120902 1e-07 0 0 0 0 0 0 0 0 
422 1.22757e-06 1e-07 0 0 0 0 0 0 0 0 
423 -0.0115062 1e-07 0 0 0 0 0 0 0 0 
424 1.96931e-05 1e-07 0 0 0 0 0 0 0 0 
425 -0.000277529 1e-07 0 0 0 0 0 0 0 0 
426 -2.699e-05 1e-07 0 0 0 0 0 0 0 0 
427 -9.4581e-05 1e-07 0 0 0 0 0 0 0 0 
428 -0.281284 1e-07 0 0 0 0 0 0 0 0 
429 6.07812e-08 1e-07 0 0 0 0 0 0 0 0 
430 1.13961e-08 1e-07 0 0 0 0 0 0 0 0 
431 -0.0299441 1e-07 0 0 0 0 0 0 0 0 
432 -4.04124e-08 1e-07 0 0 0 0 0 0 0 0 
433 3.94644e-06 1e-07 0 0 0 0 0 0 0 0 
434 -0.125749 1e-07 0 0 0 0 0 0 0 0 
435 1.44931e-05 1e-07 0 0 0 0 0 0 0 0 
436 -4.134e-07 1e-07 0 0 0 0 0 0 0 0 
437 -9.6258e-05 1e-07 0 0 0 0 0 0 0 0 
438 7.04161e-07 1e-07 0 0 0 0 0 0 0 0 
439 9.80519e-07 1e-07 0 0 0 0 0 0 0 0 
440 -0.00672648 1e-07 0 0 0 0 0 0 0 0 
441 -0.220879 1e-07 0 0 0 0 0 0 0 0 
442 -0.000631889 1e-07 0 0 0 0 0 0 0 0 
443 2.34406e-08 1e-07 0 0 0 0 0 0 0 0 
444 2.13076e-06 1e-07 0 0 0 0 0 0 0 0 
445 0.000121198 1e-07 0 0 0 0 0 0 0 0 
446 -9.03824e-05 1e-07 0 0 0 0 0 0 0 0 
447 -0.094078 1e-07 0 0 0 0 0 0 0 0 
448 -2.14703e-08 1e-07 0 0 0 0 0 0 0 0 
449 -3.24593e-07 1e-07 0 0 0 0 0 0 0 0 
450 -0.0191001 1e-07 0 0 0 0 0 0 0 0 
451 -1.64421e-07 1e-07 0 0 0 0 0 0 0 0 
452 -0.000708715 1e-07 0 0 0 0 0 0 0 0 
453 -2.17365e-05 1e-07 0 0 0 0 0 0 0 0 
454 -0.174518 1e-07 0 0 0 0 0 0 0 0 
455 1.05767e-06 1e-07 0 0 0 0 0 0 0 0 
456 5.70882e-08 1e-07 0 0 0 0 0 0 0 0 
457 -0.00720262 1e-07 0 0 0 0 0 0 0 0 
458 -2.06781e-07 1e-07 0 0 0 0 0 0 0 0 
459 -5.44513e-06 1e-07 0 0 0 0 0 0 0 0 
460 8.32063e-05 1e-07 0 0 0 0 0 0 0 0 
461 4.03622e-07 1e-07 0 0 0 0 0 0 0 0 
462 -0.000206566 1e-07 0 0 0 0 0 0 0 0 
463 -0.0106667 1e-07 0 0 0 0 0 0 0 0 
464 3.32768e-05 1e-07 0 0 0 0 0 0 0 0 
465 -0.121543 1e-07 0 0 0 0 0 0 0 0 
466 7.13407e-08 1e-07 0 0 0 0 0 0 0 0 
467 -4.74818e-08 1e-07 0 0 0 0 0 0 0 0 
468 -0.0441062 1e-07 0 0 0 0 0 0 0 0 
469 5.63157e-08 1e-07 0 0 0 0 0 0 0 0 
470 0.000405888 1e-07 0 0 0 0 0 0 0 0 
471 -1.84722e-07 1e-07 0 0 0 0 0 0 0 0 
472 -2.86618e-05 1e-07 0 0 0 0 0 0 0 0 
473 6.85423e-06 1e-07 0 0 0 0 0 0 0 0 
474 -0.00118995 1e-07 0 0 0 0 0 0 0 0 
475 -2.50694e-07 1e-07 0 0 0 0 0 0 0 0 
476 0.000426798 1e-07 0 0 0 0 0 0 0 0 
477 -4.59011e-07 1e-07 0 0 0 0 0 0 0 0 
478 -3.23776e-05 1e-07 0 0 0 0 0 0 0 0 
479 -9.3626e-06 1e-07 0 0 0 0 0 0 0 0 
480 -0.0328548 1e-07 0 0 0 0 0 0 0 0 
481 6.42342e-08 1e-07 0 0 0 0 0 0 0 0 
482 -0.00689068 1e-07 0 0 0 0 0 0 0 0 
483 -4.66029e-08 1e-07 0 0 0 0 0 0 0 0 
484 -0.0760669 1e-07 0 0 0 0 0 0 0 0 
485 9.42727e-08 1e-07 0 0 0 0 0 0 0 0 
486 -5.48459e-05 1e-07 0 0 0 0 0 0 0 0 
487 -4.10007e-05 1e-07 0 0 0 0 0 0 0 0 
488 -3.93764e-06 1e-07 0 0 0 0 0 0 0 0 
489 1.67175e-07 1e-07 0 0 0 0 0 0 0 0 
490 -0.00302665 1e-07 0 0 0 0 0 0 0 0 
491 -0.0313101 1e-07 0 0 0 0 0 0 0 0 
492 0.00128092 1e-07 0 0 0 0 0 0 0 0 
493 -0.000229711 1e-07 0 0 0 0 0 0 0 0 
494 -0.0097315 1e-07 0 0 0 0 0 0 0 0 
495 -2.40323e-05 1e-07 0 0 0 0 0 0 0 0 
496 1.11194e-07 1e-07 0 0 0 0 0 0 0 0 
497 -1.79377e-05 1e-07 0 0 0 0 0 0 0 0 
498 1.02788e-07 1e-07 0 0 0 0 0 0 0 0 
499 4.99251e-07 1e-07 0 0 0 0 0 0 0 0 
500 1.8681e-07 1e-07 0 0 0 0 0 0 0 0 
501 1.17728e-07 1e-07 0 0 0 0 0 0 0 0 
