VARIABLES = "Cell" "Mode 0" "Mode 1" "Mode 2" "Mode 3" "Mode 4" "Mode 5" "Mode 6" "Mode 7" "Mode 8" "Mode 9" 
ZONE T = Iteration19
0 -191.076 -1510.79 -145.436 0.166994 -0.0267917 -0.017825 -0.0243451 -0.0214021 -0.0184306 -0.0173889 
1 -1050.69 -1231.95 4364.31 -3.11502 0.493021 0.15975 0.207975 0.12963 0.0536946 0.0176053 
2 -308.771 1019.01 -18.2469 8.34489 -1.04173 0.110727 -0.109713 -0.15356 -0.085076 -0.0503805 
3 25.411 3120.32 -95.4324 -0.0410823 -0.0254674 -0.0269971 -0.0280753 -0.0301339 -0.0313935 -0.0320019 
4 109.036 -275.389 -14.5722 -19.1934 16.5615 -1.80791 7.25406 6.96369 2.99672 1.45316 
5 537.053 711.527 -207.456 0.102488 -0.160514 -0.138724 -0.117152 -0.0816329 -0.0589966 -0.0478079 
6 458.937 1370.36 116.305 96.3125 15.6083 20.783 -8.49511 -2.42423 -0.54969 -0.208716 
7 1171.33 -699.56 -32.5531 -231.845 -39.5009 -0.460566 -0.227227 -0.478756 -0.279774 -0.152181 
8 983.71 -197.478 333.648 24.2763 -1.04319 -0.414844 -0.313242 -0.21165 -0.1317 -0.0793839 
9 7736.45 -271.159 16.4859 -82.9019 -14.6459 -0.841092 -0.41141 -0.368064 -0.211414 -0.127757 
10 318.749 6.33386 -487.815 21.1874 -0.328391 -0.257135 -0.21956 -0.171149 -0.120771 -0.0755312 
11 -6332.5 366.031 50.279 26.6582 -3.49656 -0.362096 -0.262397 -0.233538 -0.170576 -0.123316 
12 347.341 -57.3749 -1.6448 -27.064 6.62121 -0.632258 -0.117812 0.337085 0.141799 0.0481707 
13 1.27237 104.548 -96.0029 19.1261 7.26193 0.043459 3.17509 -1.67617 -0.823218 -0.438227 
14 297.661 1243.16 23.9827 72.0554 -12.0808 -2.09817 0.103842 -0.344542 -0.278847 -0.187167 
15 -796.6 -299.978 -205.639 -19.4112 -23.2992 -3.40505 -0.706497 -0.576911 -0.324479 -0.188763 
16 -502.431 -65.0693 472.657 0.202333 -0.0147083 -0.120656 -0.145412 -0.166203 -0.149267 -0.102619 
17 -170.039 769.007 -1463.59 0.0271253 -0.0597908 -0.0620811 -0.0619157 -0.0620824 -0.0622321 -0.0622982 
18 -1682.2 -177.953 -2638.22 3.15954 0.0120776 -0.0769555 -0.0736336 -0.0698523 -0.0694684 -0.0693147 
19 2049.49 -976.366 47.047 -2.5986 0.151975 -0.160319 -0.089217 -0.107961 -0.141933 -0.154491 
20 515.77 -106.726 10296 -0.687269 -0.093556 -0.0775209 -0.0791173 -0.0798457 -0.0798897 -0.0798985 
21 303.874 232.263 -15.2569 -3.86893 0.194141 -0.0927262 -0.111119 -0.15826 -0.175576 -0.145093 
22 199.981 26.7947 176.973 -3.97741 -48.3556 2.59503 -0.356972 -0.30279 -0.23364 -0.169905 
23 16.4366 71.7164 18.1253 3.52526 -9.66321 -8.96615 -0.506281 0.0141106 -0.0731706 -0.0947616 
24 65.7824 37.8428 118.159 185.553 6.8103 -0.0536264 -0.297198 -0.072337 -0.0839702 -0.0910513 
25 -718.229 -56.3063 -228.915 -10.9189 -0.269065 -0.69609 -0.0559959 -0.125618 -0.143834 -0.168966 
26 774.449 44.5701 1409.17 -29.9121 -1.17492 -0.0767872 -0.0722352 -0.106622 -0.104644 -0.103351 
27 -132.112 1361.45 -67.2028 -12.5092 0.884339 -0.250749 -0.0856346 -0.108498 -0.153477 -0.190079 
28 248.383 -20.0557 109.096 1.50354 -0.49273 -2.14471 -0.221264 -0.0288641 -0.0893215 -0.113538 
29 -5.5485 -68.8721 54.1299 5.64387 222.253 -0.553588 -0.174784 -0.136704 -0.13349 -0.125199 
30 459.156 -38.1437 112.958 1.23397 -0.084794 -0.602308 -0.113279 -0.0613226 -0.10668 -0.150217 
31 198.656 52.0324 99.8271 -36.1837 -67.4473 -0.107577 -0.284367 -0.19013 -0.167118 -0.154334 
32 144.233 426.713 -851.575 -0.475858 -0.130889 -0.115356 -0.116495 -0.116936 -0.11687 -0.116775 
33 -674.049 511.96 31.8277 -4.4994 -0.0617319 -0.153028 -0.18276 -0.236196 -0.257637 -0.214566 
34 -218.758 -230.775 -161.199 2.51452 -0.0173597 -0.144043 -0.140104 -0.136547 -0.136859 -0.136957 
35 275.234 -1204.01 3.21916 -1.78516 -0.184878 -0.213426 -0.262944 -0.30467 -0.283551 -0.201731 
36 1718.57 867.984 10.3078 -9.75012 0.122985 -0.192174 -0.158058 -0.193964 -0.256803 -0.272268 
37 219.552 259.318 87.2503 2.08469 -4.2876 -0.366086 -0.186158 -0.182828 -0.181871 -0.169344 
38 -271.991 -207.863 -379.051 -0.0415138 -0.130678 -0.133594 -0.133201 -0.13311 -0.133134 -0.13313 
39 223.11 24.9047 143.274 -37.1827 5.30396 -0.239422 -0.170958 -0.174159 -0.179547 -0.181413 
40 -23.5521 -43.8461 1.49671 -2.80226 -2.07885 0.0675538 -0.218594 -0.229273 -0.202161 -0.199402 
41 -23.894 -226.566 427.901 2.11387 -20.2574 -0.192459 -0.214267 -0.193506 -0.187246 -0.188663 
42 -47.877 -1111.38 -58.1168 -5.28889 -7.54116 -0.176882 -0.206717 -0.219182 -0.22116 -0.20505 
43 -34.1369 41.0266 -2782.5 2.60845 -0.0590423 -0.172573 -0.171088 -0.170267 -0.171066 -0.170925 
44 -378.935 -2093.72 -0.356464 0.179079 -0.327007 -0.247507 -0.238988 -0.239963 -0.290197 -0.325289 
45 7.30455 -68.0221 -57.5642 -0.148428 -0.167135 -0.167853 -0.16774 -0.167716 -0.167728 -0.16775 
46 313.413 -405.805 -2.62075 -0.644151 -0.283658 -0.283323 -0.324995 -0.373204 -0.353791 -0.258 
47 11.976 -41.8718 -0.296381 -0.00700698 -0.669048 -0.18447 -0.275507 -0.252539 -0.231213 -0.266283 
48 -76.0201 97.9688 -2630.5 0.872524 2.33588 -0.202913 -0.202869 -0.206123 -0.205528 -0.207906 
49 270.831 -9.67099 -1966.95 0.409988 -0.587992 -0.203432 -0.201933 -0.201789 -0.201479 -0.198287 
50 33.1393 106.684 0.264195 -0.257693 -0.39684 -0.261003 -0.272246 -0.244845 -0.26962 -0.335764 
51 147.157 -18.8518 -3950.01 -0.39058 -0.207299 -0.199869 -0.20005 -0.200066 -0.200045 -0.200132 
52 23.0098 -64.7254 677.944 -0.164527 -0.19543 -0.196562 -0.196533 -0.196549 -0.196556 -0.196587 
53 24.786 155.877 -2.88489 0.0116966 -0.350631 -0.302084 -0.275989 -0.305165 -0.375378 -0.386636 
54 -148.116 288.011 -1.09365 -0.117207 -0.345749 -0.311867 -0.331585 -0.393239 -0.414069 -0.340566 
55 28.5252 322.759 -38.6869 -0.928719 -0.195695 -0.266763 -0.268033 -0.275278 -0.281847 -0.269604 
56 432.405 16.8058 636.748 -6.30078 1.00846 -0.258045 -0.258943 -0.259512 -0.259484 -0.26452 
57 -35.2064 287.155 -4.10039 1.0854 0.0665491 -0.319258 -0.315834 -0.302893 -0.281368 -0.294719 
58 3.15441 117.726 -121.96 -0.230736 -0.224559 -0.224367 -0.224367 -0.224369 -0.224392 -0.224417 
59 -21.1061 0.288808 220.865 -0.358672 -0.231261 -0.250295 -0.25026 -0.250233 -0.250763 -0.250227 
60 -222.578 -92.4014 -1.69773 -0.166041 -0.358852 -0.354274 -0.334619 -0.309002 -0.335757 -0.404715 
61 586.619 22.1561 -0.394244 -0.360041 -0.363947 -0.362414 -0.431728 -0.516058 -0.494909 -0.353031 
62 -12.1172 2.04637 -393.651 -0.381751 -0.255993 -0.244729 -0.244869 -0.244596 -0.244653 -0.245105 
63 -118.68 -97.5481 -25.272 1.49123 0.204178 -0.307653 -0.317503 -0.320021 -0.298027 -0.27371 
64 -446.68 -61.2793 -0.628054 -0.327358 -0.374037 -0.361998 -0.335031 -0.339477 -0.398761 -0.442321 
65 -156.148 21.3389 4.34386 -4.67099 0.316951 -0.285282 -0.28504 -0.285152 -0.290075 -0.293768 
66 -193.836 4.05951 26.3178 0.189588 -0.512296 -0.285629 -0.285332 -0.285259 -0.284622 -0.283721 
67 -5.82247 -25.0504 -21.677 -0.261211 -0.25664 -0.256339 -0.256353 -0.256401 -0.256399 -0.256246 
68 146.144 -0.136944 -5.59809 0.242903 -0.271972 -0.370315 -0.36551 -0.344733 -0.33329 -0.370029 
69 -665.13 -27.7781 -0.312306 -0.446918 -0.399161 -0.378252 -0.425901 -0.526884 -0.567092 -0.460509 
70 6.39229 -12.1927 73.383 -0.246685 -0.272114 -0.274129 -0.274176 -0.274166 -0.273922 -0.274015 
71 53.881 -44.8528 -0.0344226 -0.442926 -0.418335 -0.37702 -0.35699 -0.421143 -0.533379 -0.549093 
72 -37.57 -10.8562 -39.7664 -0.34106 -0.336182 -0.329939 -0.329468 -0.330514 -0.334416 -0.334875 
73 -24.9187 70.8428 11.7568 -0.274243 -0.275721 -0.275789 -0.275786 -0.275807 -0.275855 -0.275869 
74 142.828 -5.24733 -0.46199 -0.478549 -0.440103 -0.448769 -0.524649 -0.599932 -0.574242 -0.424748 
75 186.715 -15.7517 -79.3916 -0.307169 -0.344328 -0.319275 -0.318847 -0.318184 -0.318941 -0.323285 
76 120.892 -3.51731 -29.9258 0.174411 -0.313955 -0.363441 -0.370989 -0.372038 -0.347915 -0.32609 
77 72.5736 18.3173 -15.0479 -0.48332 -0.437577 -0.392387 -0.393467 -0.38235 -0.370479 -0.39108 
78 -3.37828 4.29323 -0.0845005 -0.475593 -0.463014 -0.431709 -0.398952 -0.421936 -0.51599 -0.589141 
79 -1.49206 48.8935 8.39615 -0.313924 -0.31677 -0.316429 -0.316169 -0.316038 -0.316046 -0.315608 
80 18.9972 36.8031 -2.39054 -0.473565 -0.460672 -0.445826 -0.410783 -0.377635 -0.409959 -0.51593 
81 -19.2919 5.59183 9.32381 -0.338693 -0.336107 -0.339479 -0.339187 -0.338898 -0.338687 -0.340484 
82 -5.34637 4.07311 -13.0846 -0.325275 -0.38582 -0.378926 -0.379847 -0.3817 -0.382774 -0.373346 
83 29.5345 10.8447 -0.470917 -0.523109 -0.490045 -0.470488 -0.512788 -0.595411 -0.624819 -0.533226 
84 -15.3436 -18.587 -0.00142008 -0.469889 -0.413089 -0.400826 -0.400637 -0.402157 -0.398095 -0.3836 
85 6.60422 -159.113 2.45727 -0.313984 -0.314353 -0.314414 -0.314521 -0.314438 -0.314112 -0.313959 
86 0.0549198 26.1706 -0.285238 -0.517484 -0.503946 -0.463706 -0.445086 -0.5003 -0.594071 -0.618949 
87 1.91711 393.665 -2.61919 -0.339886 -0.339399 -0.339699 -0.33961 -0.339134 -0.339011 -0.339573 
88 7.82466 156.687 -0.220142 -0.489777 -0.488194 -0.494738 -0.472669 -0.433527 -0.433627 -0.507905 
89 39.9152 0.158639 -0.58741 -0.575407 -0.555265 -0.563221 -0.61855 -0.675631 -0.652928 -0.511459 
90 -10.428 131.64 0.359232 -0.384645 -0.385416 -0.385988 -0.385734 -0.384081 -0.383258 -0.388357 
91 6.97912 99.6532 -0.146853 -0.529666 -0.538981 -0.524943 -0.488281 -0.477926 -0.537273 -0.61836 
92 -8.87171 28.9935 1.0625 -0.418906 -0.412212 -0.413342 -0.414628 -0.416044 -0.416669 -0.414582 
93 -3.3111 -33.9563 -1.35986 -0.346521 -0.346341 -0.346341 -0.346451 -0.346573 -0.346428 -0.345925 
94 76.2758 333.1 -0.230703 -0.495313 -0.469546 -0.477778 -0.479122 -0.453898 -0.423294 -0.437053 
95 -1.97598 -35.9798 -0.931253 -0.386 -0.385718 -0.386051 -0.386658 -0.386482 -0.384533 -0.38334 
96 -40.2159 15.8051 -0.550139 -0.584058 -0.584573 -0.564004 -0.540488 -0.562864 -0.639549 -0.69437 
97 -250.498 -28.9623 -0.552515 -0.498959 -0.50323 -0.514064 -0.523837 -0.509928 -0.475649 -0.470753 
98 -12.8269 65.6395 -0.429164 -0.457634 -0.453968 -0.450563 -0.454805 -0.468093 -0.47459 -0.451779 
99 -25.4177 -3.30809 -0.647862 -0.620123 -0.605529 -0.598439 -0.630351 -0.69253 -0.716515 -0.632451 
100 -1.17229 5.3003 -0.464728 -0.419189 -0.419295 -0.419058 -0.418552 -0.418464 -0.419415 -0.42079 
101 -0.909055 -3.07456 -0.739563 -0.40267 -0.402743 -0.403018 -0.403074 -0.402503 -0.401644 -0.401817 
102 56.8633 25.7037 -0.533384 -0.495918 -0.490506 -0.491579 -0.504939 -0.515526 -0.494659 -0.451156 
103 53.8169 -9.07204 -0.570953 -0.559175 -0.561693 -0.570302 -0.572923 -0.556072 -0.541802 -0.574813 
104 64.1957 -5.34769 -0.473298 -0.486554 -0.485604 -0.481329 -0.478352 -0.484026 -0.497267 -0.500122 
105 50.0408 -5.63406 -0.600965 -0.596658 -0.602976 -0.602823 -0.587114 -0.573851 -0.602467 -0.670866 
106 15.3837 4.55131 -0.454808 -0.472424 -0.473536 -0.472138 -0.468209 -0.466577 -0.473288 -0.485023 
107 -219.1 -2.9124 -0.54993 -0.550587 -0.548792 -0.546629 -0.549926 -0.55814 -0.554834 -0.531993 
108 -3.49955 -0.158287 -0.709303 -0.676803 -0.643128 -0.659876 -0.750653 -0.839997 -0.800058 -0.61685 
109 -1.08629 1.20061 -0.341619 -0.441196 -0.441107 -0.441068 -0.441262 -0.441587 -0.44153 -0.440694 
110 16.0381 -3.28885 -0.541091 -0.54288 -0.542174 -0.539467 -0.538223 -0.544392 -0.552857 -0.544017 
111 -79.4575 -3.57961 -0.585133 -0.590772 -0.58634 -0.584997 -0.591226 -0.595015 -0.584023 -0.578738 
112 3.11922 -0.183089 -0.653601 -0.6612 -0.661507 -0.643997 -0.620011 -0.625867 -0.681087 -0.744521 
113 16.3447 -0.629444 -0.520997 -0.521382 -0.522468 -0.522432 -0.519995 -0.517263 -0.51931 -0.527881 
114 10.6828 -1.05437 -0.633513 -0.639145 -0.645246 -0.643334 -0.62599 -0.607194 -0.618097 -0.669032 
115 -1.87656 -0.253765 -0.741468 -0.725053 -0.679024 -0.659766 -0.725423 -0.84931 -0.888339 -0.747903 
116 -2.94385 -0.439995 -0.711486 -0.724175 -0.694912 -0.637723 -0.621581 -0.711746 -0.866432 -0.891584 
117 -1.97479 -0.544965 -0.580832 -0.579464 -0.57907 -0.579353 -0.580206 -0.581302 -0.581355 -0.575866 
118 3.22524 0.0238009 -0.478205 -0.489972 -0.489661 -0.489845 -0.490789 -0.491491 -0.490273 -0.487395 
119 -1.60853 -0.334093 -0.523351 -0.525383 -0.526073 -0.527176 -0.526757 -0.523907 -0.521559 -0.524904 
120 0.736748 -1.04434 -0.573337 -0.57222 -0.571793 -0.570539 -0.569526 -0.570836 -0.575882 -0.579394 
121 -2.30621 -0.598611 -0.663179 -0.667817 -0.676952 -0.678815 -0.662946 -0.637212 -0.639161 -0.692784 
122 -0.731772 -0.753028 -0.745853 -0.765759 -0.755759 -0.706552 -0.67712 -0.733682 -0.867915 -0.941348 
123 -0.87442 -0.759836 -0.794308 -0.779323 -0.755681 -0.767761 -0.850302 -0.952982 -0.90871 -0.665997 
124 -1.69505 -0.607827 -0.642218 -0.638464 -0.632715 -0.635786 -0.652615 -0.664372 -0.640636 -0.58723 
125 -1.04302 -0.645153 -0.530257 -0.525576 -0.525555 -0.52533 -0.525136 -0.525421 -0.52617 -0.52639 
126 -1.16204 -0.706787 -0.720243 -0.737126 -0.750667 -0.727272 -0.68039 -0.673319 -0.75414 -0.885854 
127 -0.8473 -0.668768 -0.665906 -0.66113 -0.667613 -0.684249 -0.688029 -0.657965 -0.612592 -0.619136 
128 -0.709418 -0.814603 -0.798217 -0.799213 -0.779479 -0.761451 -0.7951 -0.899252 -0.972027 -0.834476 
129 -0.639758 -0.625618 -0.616693 -0.616555 -0.615667 -0.614549 -0.615264 -0.617997 -0.619247 -0.616033 
130 -0.666302 -0.609134 -0.591209 -0.590085 -0.59053 -0.591415 -0.591066 -0.5885 -0.586419 -0.589497 
131 -0.66298 -0.759849 -0.749729 -0.754973 -0.771559 -0.770996 -0.734855 -0.707067 -0.75071 -0.858147 
132 -0.533099 -0.646678 -0.658831 -0.659053 -0.656023 -0.652544 -0.656768 -0.669809 -0.673246 -0.647947 
133 -0.584408 -0.656044 -0.631056 -0.631261 -0.631264 -0.629337 -0.62754 -0.630266 -0.636938 -0.63764 
134 -0.742859 -0.637868 -0.589038 -0.586448 -0.586092 -0.586299 -0.587164 -0.587363 -0.58549 -0.582979 
135 -0.843497 -0.828771 -0.827557 -0.818142 -0.808212 -0.81625 -0.863407 -0.939176 -0.976414 -0.84883 
136 -0.761972 -0.730183 -0.725296 -0.72044 -0.730905 -0.750821 -0.742454 -0.688947 -0.652276 -0.713326 
137 -0.796381 -0.810409 -0.810306 -0.808714 -0.799485 -0.783589 -0.784601 -0.838406 -0.93607 -0.975591 
138 -0.7122 -0.697684 -0.699001 -0.699847 -0.697587 -0.692922 -0.694588 -0.70934 -0.721262 -0.696588 
139 -0.870758 -0.868726 -0.86137 -0.852231 -0.853343 -0.879648 -0.930047 -0.965496 -0.913922 -0.72722 
140 -0.678114 -0.683692 -0.680784 -0.68216 -0.683263 -0.680107 -0.673865 -0.675998 -0.694878 -0.709497 
141 -0.502531 -0.600289 -0.623826 -0.624652 -0.624232 -0.623754 -0.623685 -0.623994 -0.62362 -0.621622 
142 -0.761418 -0.765256 -0.76607 -0.761452 -0.756395 -0.76321 -0.778273 -0.772923 -0.740971 -0.732242 
143 -0.838716 -0.839553 -0.840018 -0.835713 -0.828854 -0.824732 -0.831591 -0.861473 -0.915023 -0.94829 
144 -0.752754 -0.744952 -0.746443 -0.746971 -0.743927 -0.742044 -0.749227 -0.755851 -0.736836 -0.703527 
145 -0.878117 -0.878131 -0.874004 -0.864531 -0.858786 -0.870267 -0.906312 -0.950805 -0.952308 -0.850882 
146 -0.816541 -0.81898 -0.821935 -0.822564 -0.816657 -0.80684 -0.800384 -0.809172 -0.850763 -0.922799 
147 -0.717896 -0.715575 -0.715096 -0.714915 -0.715794 -0.716663 -0.715028 -0.711609 -0.713169 -0.723435 
148 -0.660085 -0.665615 -0.666829 -0.666881 -0.666827 -0.666955 -0.667339 -0.667255 -0.665813 -0.664366 
149 -0.793811 -0.794172 -0.794079 -0.794426 -0.795291 -0.795364 -0.794572 -0.793447 -0.78688 -0.777544 
150 -0.710114 -0.708191 -0.707565 -0.707208 -0.707233 -0.707831 -0.70771 -0.705832 -0.704934 -0.710686 
151 -0.779544 -0.778918 -0.778955 -0.77885 -0.779147 -0.779859 -0.779885 -0.779546 -0.778063 -0.768677 
152 -0.912748 -0.915413 -0.91347 -0.899352 -0.882946 -0.895303 -0.954677 -1.02082 -0.998038 -0.829843 
153 -0.853484 -0.852703 -0.853882 -0.858494 -0.858392 -0.845472 -0.829489 -0.834971 -0.878616 -0.944342 
154 -0.693794 -0.68556 -0.684076 -0.68408 -0.684117 -0.68413 -0.684293 -0.684707 -0.684901 -0.684076 
155 -0.844035 -0.844641 -0.84289 -0.844235 -0.851062 -0.851783 -0.834802 -0.8128 -0.816645 -0.873749 
156 -0.756201 -0.756474 -0.756504 -0.75618 -0.756068 -0.756579 -0.75663 -0.754988 -0.753636 -0.757375 
157 -0.900651 -0.90096 -0.904163 -0.908019 -0.898005 -0.869151 -0.854498 -0.900918 -1.00206 -1.05311 
158 -0.922155 -0.92491 -0.927874 -0.921803 -0.901642 -0.890658 -0.927056 -1.00721 -1.05019 -0.954438 
159 -0.816852 -0.816538 -0.816661 -0.817127 -0.81688 -0.816621 -0.817616 -0.817936 -0.814968 -0.809125 
160 -0.731283 -0.730677 -0.730601 -0.730674 -0.730661 -0.730555 -0.730735 -0.731328 -0.731308 -0.729504 
161 -0.880333 -0.881236 -0.881425 -0.879824 -0.88204 -0.886806 -0.877853 -0.854289 -0.851532 -0.901615 
162 -0.761705 -0.761734 -0.76187 -0.761771 -0.761402 -0.761443 -0.762071 -0.761878 -0.759935 -0.759021 
163 -0.800065 -0.799958 -0.799306 -0.799465 -0.80024 -0.799933 -0.799432 -0.801218 -0.802894 -0.798913 
164 -0.911718 -0.912717 -0.91282 -0.914427 -0.91662 -0.906089 -0.88209 -0.879616 -0.935422 -1.01903 
165 -0.863937 -0.862827 -0.863154 -0.864602 -0.8641 -0.862595 -0.864006 -0.863379 -0.852476 -0.842636 
166 -0.882968 -0.882367 -0.883679 -0.883462 -0.881896 -0.885663 -0.889577 -0.874402 -0.848627 -0.857886 
167 -0.959043 -0.963246 -0.961496 -0.950853 -0.942115 -0.960074 -1.02121 -1.08863 -1.06033 -0.864636 
168 -0.752289 -0.753047 -0.753138 -0.753131 -0.753139 -0.753077 -0.752919 -0.752952 -0.753464 -0.753866 
169 -0.80635 -0.806325 -0.806419 -0.806346 -0.805901 -0.805604 -0.805809 -0.805531 -0.804256 -0.804619 
170 -0.845318 -0.845421 -0.844663 -0.844122 -0.844986 -0.845744 -0.844873 -0.844957 -0.846527 -0.84226 
171 -0.932525 -0.933468 -0.936243 -0.937866 -0.93625 -0.92543 -0.903887 -0.902281 -0.96066 -1.05193 
172 -0.956308 -0.960515 -0.963772 -0.959068 -0.947993 -0.944437 -0.971402 -1.03712 -1.08753 -1.02172 
173 -0.878446 -0.877656 -0.876387 -0.87683 -0.878446 -0.878343 -0.877435 -0.877392 -0.871676 -0.858453 
174 -0.843258 -0.843753 -0.843632 -0.842584 -0.842334 -0.843725 -0.844117 -0.842502 -0.843114 -0.844963 
175 -0.79926 -0.799336 -0.799323 -0.799355 -0.799181 -0.79877 -0.798634 -0.798891 -0.798486 -0.796959 
176 -0.916265 -0.914532 -0.914632 -0.915525 -0.914678 -0.9165 -0.9221 -0.912141 -0.879163 -0.878588 
177 -0.933258 -0.931618 -0.933037 -0.936169 -0.938338 -0.936992 -0.923159 -0.896617 -0.899241 -0.981457 
178 -0.969775 -0.971351 -0.976311 -0.975312 -0.965025 -0.961041 -0.990156 -1.05854 -1.11353 -1.05059 
179 -0.828781 -0.828368 -0.828021 -0.827706 -0.827338 -0.826716 -0.825868 -0.825117 -0.824367 -0.822882 
180 -0.909694 -0.909727 -0.908172 -0.90688 -0.908099 -0.909737 -0.909138 -0.908382 -0.904075 -0.885356 
181 -0.926673 -0.92504 -0.923255 -0.92473 -0.926958 -0.925153 -0.923404 -0.924573 -0.914932 -0.898615 
182 -0.981557 -0.981389 -0.982729 -0.980911 -0.980293 -0.99764 -1.04525 -1.10372 -1.08644 -0.887669 
183 -0.959122 -0.956475 -0.955518 -0.960599 -0.966535 -0.961131 -0.94088 -0.9223 -0.940692 -1.01835 
184 -0.881208 -0.881726 -0.882154 -0.88126 -0.880003 -0.880979 -0.883357 -0.883155 -0.881365 -0.881286 
185 -0.970117 -0.966336 -0.968511 -0.974585 -0.97223 -0.956598 -0.946579 -0.979741 -1.07507 -1.15855 
186 -0.855847 -0.855735 -0.855694 -0.855941 -0.85619 -0.855888 -0.8553 -0.855398 -0.856205 -0.857063 
187 -0.95381 -0.95257 -0.949166 -0.949213 -0.955148 -0.959152 -0.952961 -0.940114 -0.931796 -0.947862 
188 -0.913993 -0.914539 -0.914342 -0.912754 -0.91185 -0.913326 -0.914561 -0.913447 -0.91286 -0.909528 
189 -0.987637 -0.983932 -0.984471 -0.985847 -0.984412 -0.989441 -1.01839 -1.07475 -1.11832 -1.03267 
190 -0.880845 -0.880807 -0.881456 -0.881745 -0.880452 -0.879222 -0.880812 -0.883221 -0.882001 -0.879945 
191 -0.986789 -0.981523 -0.97852 -0.980983 -0.981853 -0.977553 -0.984756 -1.02788 -1.10908 -1.17241 
192 -0.963994 -0.964931 -0.962694 -0.95964 -0.962433 -0.969055 -0.965882 -0.951011 -0.946591 -0.969544 
193 -0.866761 -0.866838 -0.866836 -0.866858 -0.867059 -0.867328 -0.867354 -0.867213 -0.867363 -0.867702 
194 -0.990808 -0.987793 -0.988784 -0.990707 -0.990275 -0.994334 -1.01467 -1.0461 -1.03959 -0.908103 
195 -0.937967 -0.93792 -0.938224 -0.937682 -0.935863 -0.935138 -0.937131 -0.937592 -0.931697 -0.924273 
196 -0.991752 -0.989412 -0.983188 -0.981195 -0.98638 -0.989217 -0.985869 -0.9924 -1.02369 -1.06922 
197 -0.955093 -0.955997 -0.956968 -0.955288 -0.952827 -0.956255 -0.963472 -0.957856 -0.934648 -0.921693 
198 -0.919293 -0.918935 -0.919188 -0.919817 -0.919049 -0.916767 -0.9168 -0.920904 -0.922206 -0.914203 
199 -0.983954 -0.985624 -0.981857 -0.975367 -0.975741 -0.982886 -0.984038 -0.981426 -1.00002 -1.04727 
200 -0.994966 -0.99061 -0.98772 -0.989706 -0.992041 -0.990618 -0.993484 -1.0132 -1.04123 -1.02193 
201 -0.909875 -0.90985 -0.909603 -0.909291 -0.909276 -0.909233 -0.908118 -0.90627 -0.90634 -0.909102 
202 -0.932135 -0.931769 -0.93138 -0.93178 -0.932421 -0.931243 -0.928783 -0.92977 -0.934736 -0.933704 
203 -0.969155 -0.969351 -0.970538 -0.970799 -0.968078 -0.966496 -0.973275 -0.982033 -0.972368 -0.948223 
204 -0.983966 -0.986425 -0.987183 -0.982158 -0.975739 -0.978314 -0.987691 -0.988984 -0.987541 -1.0097 
205 -0.929512 -0.929332 -0.929034 -0.928492 -0.927825 -0.927167 -0.926027 -0.923626 -0.920575 -0.918938 
206 -0.99886 -0.996977 -0.994429 -0.993427 -0.995242 -1.00155 -1.01569 -1.03396 -1.03063 -0.948403 
207 -0.9615 -0.961264 -0.960792 -0.961032 -0.962294 -0.962586 -0.960594 -0.960928 -0.968076 -0.970456 
208 -0.992646 -0.994929 -0.997007 -0.994463 -0.986491 -0.981384 -0.986305 -0.993963 -1.00117 -1.03326 
209 -0.971243 -0.970971 -0.971555 -0.973053 -0.972663 -0.968419 -0.966416 -0.975123 -0.984887 -0.972337 
210 -0.999154 -0.998784 -0.996296 -0.993405 -0.993154 -0.997351 -1.00816 -1.02749 -1.04303 -1.01519 
211 -0.99984 -1.00155 -1.00141 -0.997981 -0.993343 -0.99138 -0.994232 -1.00432 -1.02676 -1.06001 
212 -0.943573 -0.943642 -0.943738 -0.94385 -0.944016 -0.944304 -0.944631 -0.944765 -0.944889 -0.945929 
213 -0.962513 -0.96261 -0.962457 -0.962229 -0.962566 -0.963311 -0.962861 -0.961423 -0.963798 -0.971287 
214 -0.989804 -0.990788 -0.993627 -0.99546 -0.99158 -0.983422 -0.981085 -0.987815 -0.989811 -0.989257 
215 -0.985644 -0.985535 -0.986883 -0.989384 -0.989241 -0.982886 -0.975798 -0.979905 -0.992818 -0.993541 
216 -0.946174 -0.946215 -0.946287 -0.946377 -0.946482 -0.94668 -0.947048 -0.947422 -0.9475 -0.947573 
217 -0.999325 -1.00055 -1.00128 -0.999796 -0.996259 -0.993529 -0.9949 -1.00268 -1.01808 -1.03559 
218 -0.992979 -0.990396 -0.98743 -0.986663 -0.990135 -0.99956 -1.01706 -1.03959 -1.04054 -0.942342 
219 -0.976223 -0.976269 -0.976169 -0.975946 -0.97606 -0.976609 -0.976199 -0.973804 -0.973241 -0.979869 
220 -0.986195 -0.985938 -0.986249 -0.987852 -0.989827 -0.988335 -0.981003 -0.974651 -0.981001 -0.996625 
221 -0.99733 -0.998331 -1.00023 -1.00099 -0.998468 -0.993662 -0.990625 -0.992178 -0.999165 -1.0154 
222 -0.976348 -0.976411 -0.976474 -0.976339 -0.976103 -0.976369 -0.977127 -0.976539 -0.973687 -0.973758 
223 -0.998037 -0.998749 -0.997681 -0.994145 -0.98939 -0.987094 -0.99221 -1.0086 -1.03871 -1.07343 
224 -0.967954 -0.967932 -0.967967 -0.96801 -0.967935 -0.967818 -0.968031 -0.968417 -0.967644 -0.965458 
225 -0.991593 -0.989589 -0.98589 -0.983325 -0.985097 -0.992592 -1.00637 -1.02707 -1.04557 -1.01652 
226 -0.99505 -0.994637 -0.994809 -0.996171 -0.998257 -0.998676 -0.994527 -0.986831 -0.983065 -0.991319 
227 -0.997785 -0.997835 -0.998635 -0.999858 -1 -0.997442 -0.992999 -0.991333 -0.997647 -1.01103 
228 -0.977212 -0.97718 -0.977147 -0.977125 -0.977068 -0.976915 -0.976781 -0.976902 -0.977039 -0.976253 
229 -0.991884 -0.991921 -0.992006 -0.991981 -0.991749 -0.991665 -0.992209 -0.992617 -0.991101 -0.989133 
230 -0.978336 -0.974059 -0.966985 -0.964315 -0.974573 -0.997081 -1.02034 -1.03484 -1.0198 -0.906352 
231 -0.992488 -0.992884 -0.992047 -0.989792 -0.987375 -0.986902 -0.990562 -1.00033 -1.0159 -1.03103 
232 -0.995532 -0.995111 -0.994647 -0.994787 -0.996225 -0.998564 -0.999172 -0.994628 -0.986043 -0.982394 
233 -0.988987 -0.988885 -0.988833 -0.988947 -0.989139 -0.989176 -0.989126 -0.989253 -0.988697 -0.985768 
234 -0.995476 -0.996477 -0.997621 -0.997373 -0.994383 -0.989237 -0.985204 -0.987413 -1.00117 -1.0291 
235 -0.980048 -0.979322 -0.974227 -0.966925 -0.965969 -0.979248 -1.00232 -1.02197 -1.03387 -1.01561 
236 -0.994997 -0.994969 -0.994836 -0.994695 -0.994751 -0.995118 -0.995643 -0.995964 -0.995578 -0.993653 
237 -0.970072 -0.970124 -0.966711 -0.959866 -0.955485 -0.964835 -0.992743 -1.02224 -1.02321 -0.981378 
238 -0.993714 -0.993756 -0.993772 -0.993714 -0.993583 -0.99346 -0.993479 -0.993835 -0.99466 -0.995448 
239 -0.996533 -0.996011 -0.995391 -0.995559 -0.997289 -0.999866 -1.00046 -0.995983 -0.986855 -0.97921 
240 -0.951216 -0.948188 -0.940885 -0.934905 -0.941222 -0.968931 -1.01216 -1.03674 -0.988052 -0.845036 
241 -0.990843 -0.990916 -0.991786 -0.993137 -0.993497 -0.991152 -0.986171 -0.981506 -0.982102 -0.992948 
242 -0.999581 -0.999522 -0.999083 -0.998448 -0.998376 -0.999773 -1.00248 -1.0041 -1.00066 -0.99063 
243 -0.967977 -0.970217 -0.970726 -0.96638 -0.956697 -0.948266 -0.956116 -0.992087 -1.0405 -1.05442 
244 -0.978309 -0.979011 -0.981293 -0.983706 -0.982612 -0.9747 -0.962328 -0.957428 -0.97548 -1.0174 
245 -0.994102 -0.993968 -0.993511 -0.993044 -0.99334 -0.994946 -0.996934 -0.996612 -0.99185 -0.984579 
246 -0.936242 -0.934688 -0.926546 -0.916455 -0.917143 -0.941742 -0.993414 -1.04872 -1.03606 -0.877841 
247 -1.00076 -1.0008 -1.00086 -1.0009 -1.00082 -1.00058 -1.0003 -1.00034 -1.0011 -1.00254 
248 -0.942775 -0.944923 -0.942942 -0.934388 -0.924502 -0.925819 -0.950955 -1.00226 -1.05286 -1.0316 
249 -0.998988 -0.999132 -0.999094 -0.99867 -0.998026 -0.997897 -0.999152 -1.00166 -1.00329 -1.00061 
250 -0.973339 -0.973024 -0.973323 -0.974656 -0.976135 -0.975361 -0.970488 -0.963843 -0.963493 -0.979229 
251 -0.983546 -0.983483 -0.983545 -0.98383 -0.984185 -0.984139 -0.983136 -0.981164 -0.979733 -0.982526 
252 -0.925249 -0.926484 -0.926755 -0.923336 -0.916881 -0.91518 -0.928567 -0.959169 -0.992469 -0.991737 
253 -0.993197 -0.993271 -0.993304 -0.993158 -0.992813 -0.992588 -0.993082 -0.994484 -0.995647 -0.994175 
254 -0.9795 -0.97938 -0.979267 -0.979435 -0.980037 -0.980647 -0.980251 -0.978082 -0.974943 -0.974091 
255 -0.958527 -0.958193 -0.958323 -0.959697 -0.961715 -0.961309 -0.955198 -0.945373 -0.942512 -0.960301 
256 -0.933527 -0.934411 -0.936362 -0.937195 -0.932311 -0.920869 -0.913803 -0.93026 -0.980069 -1.044 
257 -0.962226 -0.962097 -0.961734 -0.96161 -0.962576 -0.964458 -0.964856 -0.96081 -0.953375 -0.950642 
258 -0.993723 -0.993768 -0.993912 -0.994043 -0.993882 -0.993251 -0.992588 -0.993066 -0.99549 -0.998387 
259 -0.892581 -0.893008 -0.892175 -0.889011 -0.885533 -0.888353 -0.902462 -0.919102 -0.909224 -0.834092 
260 -0.952634 -0.952624 -0.9525 -0.952253 -0.952387 -0.953594 -0.955 -0.953415 -0.946974 -0.940801 
261 -0.979173 -0.979156 -0.979153 -0.979186 -0.979235 -0.979206 -0.979044 -0.978925 -0.979181 -0.97975 
262 -0.899931 -0.900232 -0.901249 -0.9028 -0.902553 -0.895999 -0.884855 -0.88592 -0.917382 -0.967625 
263 -0.958316 -0.958375 -0.958408 -0.958247 -0.957769 -0.957566 -0.959052 -0.962187 -0.962549 -0.954336 
264 -0.876492 -0.877057 -0.877572 -0.876758 -0.87292 -0.868158 -0.871346 -0.888617 -0.90552 -0.883792 
265 -0.979516 -0.979511 -0.979498 -0.97949 -0.979508 -0.979541 -0.979523 -0.97943 -0.979416 -0.979693 
266 -0.925246 -0.924873 -0.924497 -0.924548 -0.925685 -0.928146 -0.929086 -0.92222 -0.907664 -0.90369 
267 -0.848518 -0.849276 -0.84785 -0.843518 -0.83952 -0.843721 -0.861899 -0.883676 -0.875059 -0.795355 
268 -0.897937 -0.897798 -0.898161 -0.899151 -0.900777 -0.900696 -0.89351 -0.880774 -0.882129 -0.918727 
269 -0.936895 -0.936943 -0.936972 -0.936946 -0.936743 -0.936292 -0.936366 -0.938439 -0.941362 -0.938845 
270 -0.916543 -0.916407 -0.916049 -0.915754 -0.915797 -0.91665 -0.918826 -0.920029 -0.913803 -0.899723 
271 -0.970446 -0.970442 -0.97043 -0.970417 -0.970415 -0.970418 -0.970377 -0.970229 -0.970053 -0.970198 
272 -0.819206 -0.821584 -0.820189 -0.812725 -0.805098 -0.810286 -0.836959 -0.873505 -0.880093 -0.802247 
273 -0.864674 -0.864551 -0.865601 -0.867063 -0.866839 -0.863717 -0.858267 -0.853393 -0.859734 -0.892892 
274 -0.927924 -0.927944 -0.927969 -0.927956 -0.927898 -0.927747 -0.927481 -0.927668 -0.929283 -0.93092 
275 -0.888962 -0.888898 -0.888243 -0.887615 -0.888162 -0.889944 -0.891394 -0.890296 -0.883471 -0.869864 
276 -0.863842 -0.863022 -0.862774 -0.864285 -0.866548 -0.866514 -0.862362 -0.854743 -0.84704 -0.853453 
277 -0.943991 -0.943988 -0.943996 -0.944013 -0.944019 -0.943981 -0.943854 -0.943734 -0.944179 -0.94583 
278 -0.823151 -0.824006 -0.827336 -0.829453 -0.824499 -0.812868 -0.806234 -0.821588 -0.865183 -0.910696 
279 -0.803067 -0.805687 -0.807686 -0.803873 -0.793943 -0.788255 -0.802337 -0.839908 -0.875226 -0.854186 
280 -0.878406 -0.878631 -0.878585 -0.878006 -0.877537 -0.878191 -0.879575 -0.879984 -0.878671 -0.874491 
281 -0.897963 -0.898 -0.898127 -0.898134 -0.897794 -0.89736 -0.897453 -0.89823 -0.899153 -0.898765 
282 -0.832498 -0.831692 -0.831042 -0.832338 -0.835439 -0.836122 -0.830228 -0.821411 -0.820981 -0.837376 
283 -0.805842 -0.80509 -0.806279 -0.809591 -0.810559 -0.803875 -0.793333 -0.793813 -0.818164 -0.857766 
284 -0.932737 -0.932737 -0.932737 -0.932742 -0.932747 -0.932743 -0.932701 -0.932582 -0.932461 -0.93278 
285 -0.759976 -0.761056 -0.760807 -0.756655 -0.749806 -0.750258 -0.771567 -0.810431 -0.82306 -0.739313 
286 -0.842162 -0.84242 -0.842388 -0.841642 -0.840896 -0.842094 -0.845402 -0.846156 -0.839204 -0.829631 
287 -0.821401 -0.821225 -0.820248 -0.819643 -0.821497 -0.825035 -0.824481 -0.816041 -0.80775 -0.814657 
288 -0.879846 -0.879865 -0.879906 -0.879916 -0.879792 -0.879559 -0.879558 -0.880088 -0.880655 -0.880142 
289 -0.899303 -0.899304 -0.899327 -0.89937 -0.899375 -0.89924 -0.898967 -0.898828 -0.8992 -0.899962 
290 -0.775034 -0.774189 -0.774537 -0.777567 -0.780515 -0.775535 -0.760016 -0.75117 -0.77898 -0.847707 
291 -0.750385 -0.750984 -0.751898 -0.751475 -0.746915 -0.73943 -0.740732 -0.766798 -0.811037 -0.81753 
292 -0.825995 -0.826134 -0.826234 -0.826018 -0.825476 -0.825425 -0.827004 -0.829123 -0.827076 -0.818593 
293 -0.785209 -0.784737 -0.78343 -0.78325 -0.786745 -0.79157 -0.788076 -0.770628 -0.75591 -0.778511 
294 -0.843425 -0.84347 -0.843634 -0.84371 -0.843367 -0.842717 -0.842848 -0.845023 -0.84787 -0.845757 