VARIABLES = "Cell" "Mode 0" "Mode 1" "Mode 2" "Mode 3" "Mode 4" "Mode 5" "Mode 6" "Mode 7" "Mode 8" "Mode 9" 
ZONE T = Iteration02
0 -0.0254703 -0.0191907 -0.00664043 1e-07 0 0 0 0 0 0 
1 -0.00496906 -0.00247502 -0.000719509 1e-07 0 0 0 0 0 0 
2 -0.00929922 -0.00340238 -0.000547845 1e-07 0 0 0 0 0 0 
3 -0.0327858 -0.0365174 -0.0315635 1e-07 0 0 0 0 0 0 
4 -0.000191896 -2.11126e-05 -6.82504e-06 1e-07 0 0 0 0 0 0 
5 -0.0324724 -0.0157279 -0.00388253 1e-07 0 0 0 0 0 0 
6 -0.000338697 3.56189e-05 -1.67354e-06 1e-07 0 0 0 0 0 0 
7 1.18252e-05 8.33034e-07 -3.49524e-07 1e-07 0 0 0 0 0 0 
8 -2.96177e-07 1.72576e-08 6.88733e-08 1e-07 0 0 0 0 0 0 
9 -2.92768e-07 1.12384e-06 -6.82453e-08 1e-07 0 0 0 0 0 0 
10 4.59902e-07 9.07337e-08 9.1485e-08 1e-07 0 0 0 0 0 0 
11 2.30377e-06 5.39431e-07 4.03937e-08 1e-07 0 0 0 0 0 0 
12 -0.016006 -0.0027885 -1.11978e-05 1e-07 0 0 0 0 0 0 
13 -0.00510873 -0.000552624 -4.70944e-06 1e-07 0 0 0 0 0 0 
14 -1.90597e-05 6.52115e-06 -3.98022e-07 1e-07 0 0 0 0 0 0 
15 -0.000312297 1.20887e-05 2.13735e-06 1e-07 0 0 0 0 0 0 
16 1.7983e-06 2.57956e-07 1.05887e-07 1e-07 0 0 0 0 0 0 
17 -0.0619096 -0.0706079 -0.0745359 1e-07 0 0 0 0 0 0 
18 -0.0711502 -0.0374386 -0.0073294 1e-07 0 0 0 0 0 0 
19 1.19936e-05 1.59172e-06 1.7617e-07 1e-07 0 0 0 0 0 0 
20 -0.0901378 -0.0780621 -0.033364 1e-07 0 0 0 0 0 0 
21 4.94328e-06 6.14594e-07 1.28612e-07 1e-07 0 0 0 0 0 0 
22 -0.00443473 -0.000306289 4.02986e-05 1e-07 0 0 0 0 0 0 
23 -0.00110321 -7.60884e-06 1.40461e-05 1e-07 0 0 0 0 0 0 
24 -0.0458254 -0.00905814 0.000321848 1e-07 0 0 0 0 0 0 
25 2.24242e-05 6.85991e-06 4.37614e-07 1e-07 0 0 0 0 0 0 
26 -0.0752158 -0.0246921 -0.0014991 1e-07 0 0 0 0 0 0 
27 2.38973e-05 3.57158e-06 3.10399e-07 1e-07 0 0 0 0 0 0 
28 -0.000341077 1.1791e-05 2.91963e-06 1e-07 0 0 0 0 0 0 
29 -0.0106084 -0.000949681 0.000122762 1e-07 0 0 0 0 0 0 
30 -4.30667e-05 1.04896e-05 1.18885e-06 1e-07 0 0 0 0 0 0 
31 -0.0248708 -0.00301398 0.000266047 1e-07 0 0 0 0 0 0 
32 -0.131174 -0.113521 -0.0449701 1e-07 0 0 0 0 0 0 
33 2.36171e-06 2.1897e-07 1.05657e-07 1e-07 0 0 0 0 0 0 
34 -0.127833 -0.0647487 -0.0114272 1e-07 0 0 0 0 0 0 
35 4.59478e-07 6.5122e-08 9.71389e-08 1e-07 0 0 0 0 0 0 
36 6.36351e-06 4.46229e-07 1.0952e-07 1e-07 0 0 0 0 0 0 
37 -0.000607449 -2.06059e-05 -4.49512e-06 1e-07 0 0 0 0 0 0 
38 -0.135383 -0.142561 -0.119923 1e-07 0 0 0 0 0 0 
39 -0.00805151 -0.000546642 1.21229e-05 1e-07 0 0 0 0 0 0 
40 -0.000200341 -1.48439e-05 -3.13066e-06 1e-07 0 0 0 0 0 0 
41 -0.0224807 -0.00227048 7.62857e-05 1e-07 0 0 0 0 0 0 
42 -0.00293903 -0.000120953 -2.14204e-06 1e-07 0 0 0 0 0 0 
43 -0.17729 -0.0705142 -0.00790315 1e-07 0 0 0 0 0 0 
44 -7.21071e-06 -2.66099e-06 -1.5803e-07 1e-07 0 0 0 0 0 0 
45 -0.166466 -0.187635 -0.169932 1e-07 0 0 0 0 0 0 
46 -2.89397e-07 -1.17634e-07 9.00194e-08 1e-07 0 0 0 0 0 0 
47 -1.91557e-05 8.85576e-06 4.22891e-08 1e-07 0 0 0 0 0 0 
48 -0.0537086 -0.00790082 -7.06358e-05 1e-07 0 0 0 0 0 0 
49 -0.113295 -0.0242031 -0.000906422 1e-07 0 0 0 0 0 0 
50 -6.25858e-06 -2.10172e-06 -2.70791e-07 1e-07 0 0 0 0 0 0 
51 -0.233734 -0.132288 -0.0203463 1e-07 0 0 0 0 0 0 
52 -0.221779 -0.217815 -0.0948028 1e-07 0 0 0 0 0 0 
53 1.44448e-06 -1.02069e-06 1.19343e-08 1e-07 0 0 0 0 0 0 
54 -9.41163e-07 -4.79859e-07 6.55334e-08 1e-07 0 0 0 0 0 0 
55 -0.00318308 9.14813e-05 2.51686e-05 1e-07 0 0 0 0 0 0 
56 -0.0371244 -0.00418001 0.000105552 1e-07 0 0 0 0 0 0 
57 8.78983e-05 6.41531e-05 4.45646e-06 1e-07 0 0 0 0 0 0 
58 -0.219815 -0.248674 -0.220613 1e-07 0 0 0 0 0 0 
59 -0.159663 -0.0369684 -0.000788379 1e-07 0 0 0 0 0 0 
60 6.26375e-05 5.87173e-06 1.9736e-07 1e-07 0 0 0 0 0 0 
61 -9.45225e-07 -2.52568e-07 8.85445e-08 1e-07 0 0 0 0 0 0 
62 -0.246941 -0.0908354 -0.00714084 1e-07 0 0 0 0 0 0 
63 3.48856e-05 0.000180156 1.11544e-05 1e-07 0 0 0 0 0 0 
64 2.71219e-05 1.16665e-06 8.22052e-08 1e-07 0 0 0 0 0 0 
65 -0.0116792 -0.000489147 4.91809e-05 1e-07 0 0 0 0 0 0 
66 -0.0912635 -0.0156899 -3.5069e-05 1e-07 0 0 0 0 0 0 
67 -0.290366 -0.286301 -0.125847 1e-07 0 0 0 0 0 0 
68 0.000202738 3.82475e-05 1.59409e-06 1e-07 0 0 0 0 0 0 
69 1.24245e-06 -4.14982e-07 8.46804e-08 1e-07 0 0 0 0 0 0 
70 -0.303264 -0.170578 -0.0299788 1e-07 0 0 0 0 0 0 
71 2.93066e-05 6.81618e-07 3.03241e-08 1e-07 0 0 0 0 0 0 
72 -0.0221468 -0.00228003 -8.06633e-05 1e-07 0 0 0 0 0 0 
73 -0.274669 -0.306635 -0.28144 1e-07 0 0 0 0 0 0 
74 7.78418e-07 -4.6578e-07 6.15883e-08 1e-07 0 0 0 0 0 0 
75 -0.0722441 -0.0114406 -0.000273044 1e-07 0 0 0 0 0 0 
76 0.00123261 0.000325437 9.66533e-06 1e-07 0 0 0 0 0 0 
77 0.000791492 0.000125366 1.60388e-06 1e-07 0 0 0 0 0 0 
78 0.000137291 8.18446e-06 -1.01723e-07 1e-07 0 0 0 0 0 0 
79 -0.27552 -0.100618 -0.0114009 1e-07 0 0 0 0 0 0 
80 0.000454792 5.06488e-05 1.37155e-07 1e-07 0 0 0 0 0 0 
81 -0.13944 -0.0289093 -0.00117582 1e-07 0 0 0 0 0 0 
82 -0.00978014 0.000739311 0.00026217 1e-07 0 0 0 0 0 0 
83 1.51956e-05 -4.66788e-07 3.90133e-09 1e-07 0 0 0 0 0 0 
84 0.00013449 0.000763353 6.58583e-05 1e-07 0 0 0 0 0 0 
85 -0.369366 -0.328234 -0.133909 1e-07 0 0 0 0 0 0 
86 9.79907e-05 4.34632e-06 -2.22203e-07 1e-07 0 0 0 0 0 0 
87 -0.351786 -0.17231 -0.0268382 1e-07 0 0 0 0 0 0 
88 0.000677471 8.96789e-05 6.97938e-07 1e-07 0 0 0 0 0 0 
89 6.17394e-06 -1.02074e-06 5.08554e-08 1e-07 0 0 0 0 0 0 
90 -0.116644 -0.0138172 0.00211864 1e-07 0 0 0 0 0 0 
91 0.000319566 2.38927e-05 -7.77648e-07 1e-07 0 0 0 0 0 0 
92 -0.0432106 -0.000428089 0.00135656 1e-07 0 0 0 0 0 0 
93 -0.35354 -0.390237 -0.31546 1e-07 0 0 0 0 0 0 
94 0.00102608 0.000366788 1.85963e-05 1e-07 0 0 0 0 0 0 
95 -0.263268 -0.076567 -0.00361824 1e-07 0 0 0 0 0 0 
96 0.000242629 1.1511e-05 -1.48276e-06 1e-07 0 0 0 0 0 0 
97 0.000866444 0.000558608 3.34225e-05 1e-07 0 0 0 0 0 0 
98 -0.0330869 -0.00102541 0.000691166 1e-07 0 0 0 0 0 0 
99 2.05015e-05 -2.9893e-06 6.40032e-08 1e-07 0 0 0 0 0 0 
100 -0.362962 -0.155824 -0.021175 1e-07 0 0 0 0 0 0 
101 -0.47029 -0.368024 -0.135483 1e-07 0 0 0 0 0 0 
102 -0.00436756 0.000933336 0.000164088 1e-07 0 0 0 0 0 0 
103 0.00088925 0.000200087 2.98067e-06 1e-07 0 0 0 0 0 0 
104 -0.0872725 -0.0103169 0.00109648 1e-07 0 0 0 0 0 0 
105 0.000559972 4.83127e-05 -2.63875e-06 1e-07 0 0 0 0 0 0 
106 -0.230152 -0.0585899 -0.00249009 1e-07 0 0 0 0 0 0 
107 -0.00633233 0.000625913 0.000153612 1e-07 0 0 0 0 0 0 
108 -7.40262e-06 -4.16335e-06 7.48818e-09 1e-07 0 0 0 0 0 0 
109 -0.451033 -0.483638 -0.377772 1e-07 0 0 0 0 0 0 
110 -0.0339116 -0.00162266 0.000552667 1e-07 0 0 0 0 0 0 
111 -0.000451717 0.000405897 3.37995e-05 1e-07 0 0 0 0 0 0 
112 0.000238025 1.64744e-05 -1.28791e-06 1e-07 0 0 0 0 0 0 
113 -0.31336 -0.0905169 -0.00606351 1e-07 0 0 0 0 0 0 
114 0.000203664 0.000179366 1.38273e-05 1e-07 0 0 0 0 0 0 
115 -7.91614e-06 -1.04848e-05 -3.89294e-07 1e-07 0 0 0 0 0 0 
116 9.94458e-05 -1.09083e-05 -2.07899e-06 1e-07 0 0 0 0 0 0 
117 -0.054338 -0.00422195 0.000888008 1e-07 0 0 0 0 0 0 
118 -0.579162 -0.529723 -0.212663 1e-07 0 0 0 0 0 0 
119 -0.508753 -0.248324 -0.0424176 1e-07 0 0 0 0 0 0 
120 -0.139969 -0.0182157 0.00176768 1e-07 0 0 0 0 0 0 
121 0.000155948 0.000350255 5.32888e-05 1e-07 0 0 0 0 0 0 
122 0.000191132 -9.5238e-06 -3.38268e-06 1e-07 0 0 0 0 0 0 
123 2.49643e-06 -6.50594e-06 -5.95141e-07 1e-07 0 0 0 0 0 0 
124 -0.0209481 -6.19575e-05 0.000387072 1e-07 0 0 0 0 0 0 
125 -0.518907 -0.581761 -0.566745 1e-07 0 0 0 0 0 0 
126 0.000356863 0.000101856 1.2697e-05 1e-07 0 0 0 0 0 0 
127 -0.00240259 0.000686705 8.95892e-05 1e-07 0 0 0 0 0 0 
128 5.35874e-05 -1.04869e-05 -1.83471e-06 1e-07 0 0 0 0 0 0 
129 -0.162033 -0.0206652 0.00261971 1e-07 0 0 0 0 0 0 
130 -0.558958 -0.241752 -0.035081 1e-07 0 0 0 0 0 0 
131 0.000554047 5.98835e-05 -8.95024e-07 1e-07 0 0 0 0 0 0 
132 -0.0661184 -0.00452948 0.00116933 1e-07 0 0 0 0 0 0 
133 -0.335967 -0.0823263 1.90112e-05 1e-07 0 0 0 0 0 0 
134 -0.67395 -0.538633 -0.217668 1e-07 0 0 0 0 0 0 
135 1.98761e-05 -7.17862e-06 -9.35947e-07 1e-07 0 0 0 0 0 0 
136 0.00101086 0.000363464 1.36832e-05 1e-07 0 0 0 0 0 0 
137 0.000206369 -3.44637e-06 -2.05864e-06 1e-07 0 0 0 0 0 0 
138 -0.0452598 -0.00162483 0.000729039 1e-07 0 0 0 0 0 0 
139 -9.11148e-06 -9.76601e-06 -1.37013e-07 1e-07 0 0 0 0 0 0 
140 -0.17653 -0.0270518 0.00176179 1e-07 0 0 0 0 0 0 
141 -0.668511 -0.670978 -0.475243 1e-07 0 0 0 0 0 0 
142 0.0020168 0.00085979 3.36578e-05 1e-07 0 0 0 0 0 0 
143 0.0005747 5.04838e-05 -2.93531e-06 1e-07 0 0 0 0 0 0 
144 -0.00511481 0.00191741 0.000217872 1e-07 0 0 0 0 0 0 
145 8.25421e-05 -2.32635e-05 -2.02868e-07 1e-07 0 0 0 0 0 0 
146 0.00158668 0.000280985 3.76239e-07 1e-07 0 0 0 0 0 0 
147 -0.292441 -0.0624833 0.00327262 1e-07 0 0 0 0 0 0 
148 -0.737598 -0.591252 -0.211961 1e-07 0 0 0 0 0 0 
149 -0.014993 0.00221945 0.000521602 1e-07 0 0 0 0 0 0 
150 -0.550178 -0.215261 -0.0112712 1e-07 0 0 0 0 0 0 
151 -0.0900686 -0.00860807 0.0016011 1e-07 0 0 0 0 0 0 
152 0.000151187 2.36568e-07 -1.42836e-06 1e-07 0 0 0 0 0 0 
153 0.00233401 0.001128 0.000201112 1e-07 0 0 0 0 0 0 
154 -0.71797 -0.735402 -0.595024 1e-07 0 0 0 0 0 0 
155 0.00238072 0.00179516 9.3378e-05 1e-07 0 0 0 0 0 0 
156 -0.525719 -0.165278 -0.0138843 1e-07 0 0 0 0 0 0 
157 0.00121096 0.000220343 8.95465e-06 1e-07 0 0 0 0 0 0 
158 0.000443637 3.28639e-05 -4.89092e-06 1e-07 0 0 0 0 0 0 
159 -0.0822949 -0.0113747 -0.000240659 1e-07 0 0 0 0 0 0 
160 -0.842855 -0.769253 -0.307418 1e-07 0 0 0 0 0 0 
161 0.00324113 0.00150856 0.00027586 1e-07 0 0 0 0 0 0 
162 -0.752164 -0.385807 -0.0690369 1e-07 0 0 0 0 0 0 
163 -0.209524 -0.0380145 -0.000958489 1e-07 0 0 0 0 0 0 
164 0.00180851 0.000326694 -3.83123e-05 1e-07 0 0 0 0 0 0 
165 -0.0115369 0.00191033 0.000292514 1e-07 0 0 0 0 0 0 
166 0.00258251 0.00272424 0.000730287 1e-07 0 0 0 0 0 0 
167 5.72359e-05 -1.46795e-05 -1.31845e-06 1e-07 0 0 0 0 0 0 
168 -0.749572 -0.840816 -0.777586 1e-07 0 0 0 0 0 0 
169 -0.778237 -0.322984 -0.045066 1e-07 0 0 0 0 0 0 
170 -0.161965 -0.0137479 0.00420321 1e-07 0 0 0 0 0 0 
171 0.0011292 0.000124126 -9.5703e-06 1e-07 0 0 0 0 0 0 
172 0.000260331 1.45644e-05 -1.39994e-06 1e-07 0 0 0 0 0 0 
173 -0.0472967 0.00366123 0.00238945 1e-07 0 0 0 0 0 0 
174 -0.410042 -0.084552 0.00488248 1e-07 0 0 0 0 0 0 
175 -0.920338 -0.711279 -0.296832 1e-07 0 0 0 0 0 0 
176 0.00514323 0.00205257 0.000296817 1e-07 0 0 0 0 0 0 
177 0.00250075 0.000421198 2.14211e-05 1e-07 0 0 0 0 0 0 
178 0.000167897 1.90579e-05 3.29257e-06 1e-07 0 0 0 0 0 0 
179 -0.887035 -0.89169 -0.628903 1e-07 0 0 0 0 0 0 
180 -0.0347594 0.00281113 0.00150857 1e-07 0 0 0 0 0 0 
181 -0.00110593 0.0028935 0.000323333 1e-07 0 0 0 0 0 0 
182 2.00745e-05 3.48238e-06 9.09636e-07 1e-07 0 0 0 0 0 0 
183 0.00148648 0.000177281 1.41233e-05 1e-07 0 0 0 0 0 0 
184 -0.38964 -0.0748829 0.00686663 1e-07 0 0 0 0 0 0 
185 0.000567038 5.94716e-05 1.01466e-05 1e-07 0 0 0 0 0 0 
186 -0.948583 -0.764863 -0.269031 1e-07 0 0 0 0 0 0 
187 0.00203382 0.00110049 1.22343e-05 1e-07 0 0 0 0 0 0 
188 -0.149372 -0.0130865 0.00389491 1e-07 0 0 0 0 0 0 
189 2.14596e-05 -9.55403e-07 1.10575e-06 1e-07 0 0 0 0 0 0 
190 -0.687001 -0.295652 -0.0296152 1e-07 0 0 0 0 0 0 
191 0.000427794 5.04644e-06 8.46127e-07 1e-07 0 0 0 0 0 0 
192 0.00207994 0.00152714 8.45442e-05 1e-07 0 0 0 0 0 0 
193 -0.898537 -0.951892 -0.78915 1e-07 0 0 0 0 0 0 
194 9.04657e-05 -1.04507e-05 -8.76784e-08 1e-07 0 0 0 0 0 0 
195 -0.108632 -0.00895465 0.00153176 1e-07 0 0 0 0 0 0 
196 0.00225567 1.46165e-05 -2.85789e-05 1e-07 0 0 0 0 0 0 
197 -0.0151248 0.00563349 0.00114716 1e-07 0 0 0 0 0 0 
198 -0.400094 -0.10745 -0.00513787 1e-07 0 0 0 0 0 0 
199 0.00575511 0.00098362 3.10941e-05 1e-07 0 0 0 0 0 0 
200 0.00072584 -3.63267e-05 -6.32626e-06 1e-07 0 0 0 0 0 0 
201 -0.980653 -0.653992 -0.248528 1e-07 0 0 0 0 0 0 
202 -0.620299 -0.203454 -0.0176495 1e-07 0 0 0 0 0 0 
203 -0.00275052 0.0175416 0.00433351 1e-07 0 0 0 0 0 0 
204 0.0124324 0.00654449 0.00094636 1e-07 0 0 0 0 0 0 
205 -1.04351 -0.957552 -0.628453 1e-07 0 0 0 0 0 0 
206 0.000271353 -5.51353e-05 -7.39889e-06 1e-07 0 0 0 0 0 0 
207 -0.334305 -0.034084 0.0215402 1e-07 0 0 0 0 0 0 
208 0.011006 0.00388523 0.000305794 1e-07 0 0 0 0 0 0 
209 -0.0942327 0.0271779 0.0140117 1e-07 0 0 0 0 0 0 
210 0.000632836 -0.000131363 -2.31071e-05 1e-07 0 0 0 0 0 0 
211 0.00424385 0.000567335 -3.85974e-07 1e-07 0 0 0 0 0 0 
212 -0.979892 -0.792044 -0.258183 1e-07 0 0 0 0 0 0 
213 -0.617007 -0.266711 -0.0149713 1e-07 0 0 0 0 0 0 
214 0.0131221 0.00959835 0.00178387 1e-07 0 0 0 0 0 0 
215 -0.0310545 0.0140959 0.0036709 1e-07 0 0 0 0 0 0 
216 -0.991622 -1.01657 -0.830612 1e-07 0 0 0 0 0 0 
217 0.00597816 0.00115883 3.405e-05 1e-07 0 0 0 0 0 0 
218 -5.6218e-05 -9.29064e-05 -7.66485e-06 1e-07 0 0 0 0 0 0 
219 -0.545111 -0.15899 -0.0104241 1e-07 0 0 0 0 0 0 
220 -0.195177 -0.0293784 -7.42579e-06 1e-07 0 0 0 0 0 0 
221 0.0128309 0.00443707 0.000608746 1e-07 0 0 0 0 0 0 
222 -0.870743 -0.410968 -0.0628779 1e-07 0 0 0 0 0 0 
223 0.00231201 -4.16066e-06 -6.0437e-05 1e-07 0 0 0 0 0 0 
224 -1.10515 -0.905987 -0.346459 1e-07 0 0 0 0 0 0 
225 0.000228128 -0.000115595 -8.59627e-06 1e-07 0 0 0 0 0 0 
226 -0.0644876 0.00553066 0.0040787 1e-07 0 0 0 0 0 0 
227 0.0101081 0.00802129 0.00141549 1e-07 0 0 0 0 0 0 
228 -1.02652 -1.07968 -0.854926 1e-07 0 0 0 0 0 0 
229 -0.682519 -0.194646 -0.0110828 1e-07 0 0 0 0 0 0 
230 0.000404167 2.04644e-05 2.6342e-06 1e-07 0 0 0 0 0 0 
231 0.00596738 0.000631284 -1.69847e-05 1e-07 0 0 0 0 0 0 
232 -0.230241 -0.0100944 0.0136264 1e-07 0 0 0 0 0 0 
233 -1.07601 -0.646912 -0.259194 1e-07 0 0 0 0 0 0 
234 0.0126905 0.00422346 0.000490779 1e-07 0 0 0 0 0 0 
235 0.00240969 0.000230123 -2.44828e-06 1e-07 0 0 0 0 0 0 
236 -0.965601 -0.801153 -0.269287 1e-07 0 0 0 0 0 0 
237 0.00228581 -7.49365e-05 -6.45369e-05 1e-07 0 0 0 0 0 0 
238 -1.04353 -1.05997 -0.847114 1e-07 0 0 0 0 0 0 
239 -0.0672616 0.0150878 0.00826653 1e-07 0 0 0 0 0 0 
240 0.000260961 -0.000137628 -2.35221e-05 1e-07 0 0 0 0 0 0 
241 0.00942578 0.00976412 0.00167104 1e-07 0 0 0 0 0 0 
242 -0.613108 -0.237477 -0.00477777 1e-07 0 0 0 0 0 0 
243 0.00948228 0.00109851 -8.15211e-05 1e-07 0 0 0 0 0 0 
244 0.0195473 0.00749676 0.000792408 1e-07 0 0 0 0 0 0 
245 -0.241106 -0.0158883 0.0212265 1e-07 0 0 0 0 0 0 
246 0.00031092 -5.71288e-05 -8.76656e-06 1e-07 0 0 0 0 0 0 
247 -1.06346 -1.06737 -0.848933 1e-07 0 0 0 0 0 0 
248 0.00317728 0.000266304 -2.39003e-05 1e-07 0 0 0 0 0 0 
249 -0.898565 -0.603417 -0.259602 1e-07 0 0 0 0 0 0 
250 0.0154734 0.0219163 0.00448521 1e-07 0 0 0 0 0 0 
251 -0.091502 0.0215382 0.0140508 1e-07 0 0 0 0 0 0 
252 0.00543568 0.000843251 7.6483e-06 1e-07 0 0 0 0 0 0 
253 -0.833225 -0.510137 -0.143194 1e-07 0 0 0 0 0 0 
254 -0.361112 -0.0831343 0.0153409 1e-07 0 0 0 0 0 0 
255 0.00848241 0.0111522 0.00150138 1e-07 0 0 0 0 0 0 
256 0.0148577 0.00415711 7.3901e-05 1e-07 0 0 0 0 0 0 
257 -0.143059 -0.0114479 0.00764101 1e-07 0 0 0 0 0 0 
258 -1.06497 -0.907923 -0.61172 1e-07 0 0 0 0 0 0 
259 0.00126487 4.822e-05 -1.972e-05 1e-07 0 0 0 0 0 0 
260 -0.212371 -0.0285147 0.00911584 1e-07 0 0 0 0 0 0 
261 -0.956057 -0.703838 -0.227738 1e-07 0 0 0 0 0 0 
262 0.00799604 0.001643 3.19835e-05 1e-07 0 0 0 0 0 0 
263 -0.515456 -0.172266 0.00996059 1e-07 0 0 0 0 0 0 
264 0.00170897 3.34504e-05 -1.86222e-05 1e-07 0 0 0 0 0 0 
265 -1.04137 -1.005 -0.738376 1e-07 0 0 0 0 0 0 
266 -0.032034 0.00810997 0.00251715 1e-07 0 0 0 0 0 0 
267 0.000405472 -6.26187e-05 -8.9169e-06 1e-07 0 0 0 0 0 0 
268 0.00771752 0.0046073 0.000371825 1e-07 0 0 0 0 0 0 
269 -0.372306 -0.0623912 0.0100548 1e-07 0 0 0 0 0 0 
270 -0.105462 0.00026949 0.00435187 1e-07 0 0 0 0 0 0 
271 -1.03428 -1.01448 -0.741952 1e-07 0 0 0 0 0 0 
272 0.000214181 -3.38136e-05 -5.80951e-06 1e-07 0 0 0 0 0 0 
273 0.00383281 0.000987969 3.28417e-05 1e-07 0 0 0 0 0 0 
274 -0.673407 -0.259517 -0.0225627 1e-07 0 0 0 0 0 0 
275 -0.035466 0.00289539 0.00136772 1e-07 0 0 0 0 0 0 
276 0.00270696 0.00226323 0.000157181 1e-07 0 0 0 0 0 0 
277 -1.01073 -0.741253 -0.26405 1e-07 0 0 0 0 0 0 
278 0.00149972 -4.96618e-06 -2.12489e-05 1e-07 0 0 0 0 0 0 
279 0.000160037 -8.1595e-05 -9.54479e-06 1e-07 0 0 0 0 0 0 
280 -0.118054 -0.00783703 0.00323003 1e-07 0 0 0 0 0 0 
281 -0.375358 -0.0762075 0.00523327 1e-07 0 0 0 0 0 0 
282 0.00931778 0.00247332 0.000134733 1e-07 0 0 0 0 0 0 
283 0.00409275 0.000600434 6.44787e-06 1e-07 0 0 0 0 0 0 
284 -1.00318 -1.00005 -0.73335 1e-07 0 0 0 0 0 0 
285 -0.000108191 -7.69688e-05 -5.96387e-06 1e-07 0 0 0 0 0 0 
286 -0.0211472 0.0137265 0.00375831 1e-07 0 0 0 0 0 0 
287 0.01273 0.00781284 0.000937986 1e-07 0 0 0 0 0 0 
288 -0.577516 -0.177563 -0.00169047 1e-07 0 0 0 0 0 0 
289 -0.929792 -0.633133 -0.231187 1e-07 0 0 0 0 0 0 
290 0.0034245 0.000383938 -5.8637e-06 1e-07 0 0 0 0 0 0 
291 0.000541902 -0.000103888 -2.00379e-05 1e-07 0 0 0 0 0 0 
292 -0.0947755 0.0221421 0.012566 1e-07 0 0 0 0 0 0 
293 0.0102759 0.00328279 0.000276818 1e-07 0 0 0 0 0 0 
294 -0.319786 -0.0307832 0.0213856 1e-07 0 0 0 0 0 0 
295 -0.982588 -0.916734 -0.620516 1e-07 0 0 0 0 0 0 
296 0.000210306 -8.09456e-05 -1.37138e-05 1e-07 0 0 0 0 0 0 
297 0.0110455 0.00603193 0.000832925 1e-07 0 0 0 0 0 0 
298 -0.00435367 0.0158884 0.00382426 1e-07 0 0 0 0 0 0 
299 -0.586926 -0.253956 -0.0230437 1e-07 0 0 0 0 0 0 
300 -0.908049 -0.73165 -0.254243 1e-07 0 0 0 0 0 0 
301 0.000665537 -0.000153082 -3.5033e-05 1e-07 0 0 0 0 0 0 
302 0.00602432 0.00161498 8.37523e-05 1e-07 0 0 0 0 0 0 
303 0.00268309 -3.74744e-06 -8.73009e-05 1e-07 0 0 0 0 0 0 
304 -0.453072 -0.14054 -0.0119534 1e-07 0 0 0 0 0 0 
305 -0.0238753 0.00679036 0.00260511 1e-07 0 0 0 0 0 0 
306 -0.879675 -0.930744 -0.799375 1e-07 0 0 0 0 0 0 
307 -0.130183 -0.0124185 0.00248726 1e-07 0 0 0 0 0 0 
308 7.00034e-05 -4.43044e-05 -4.63471e-06 1e-07 0 0 0 0 0 0 
309 0.000943837 0.00356355 0.000660457 1e-07 0 0 0 0 0 0 
310 -0.727582 -0.360594 -0.0626205 1e-07 0 0 0 0 0 0 
311 0.00153904 0.000121449 2.19126e-07 1e-07 0 0 0 0 0 0 
312 -0.931505 -0.802537 -0.324436 1e-07 0 0 0 0 0 0 
313 0.00527138 0.0025151 0.000278965 1e-07 0 0 0 0 0 0 
314 -0.107781 -0.00143699 0.00543009 1e-07 0 0 0 0 0 0 
315 0.000419647 3.24357e-05 3.51562e-06 1e-07 0 0 0 0 0 0 
316 0.00356948 0.000785301 8.36834e-05 1e-07 0 0 0 0 0 0 
317 -0.585406 -0.210293 -0.0264741 1e-07 0 0 0 0 0 0 
318 -0.291756 -0.0457255 0.00853364 1e-07 0 0 0 0 0 0 
319 -0.821774 -0.886619 -0.732345 1e-07 0 0 0 0 0 0 
320 -0.0255242 0.00888826 0.00269226 1e-07 0 0 0 0 0 0 
321 0.000152558 1.07388e-05 1.28553e-06 1e-07 0 0 0 0 0 0 
322 0.00373293 0.00561151 0.000902277 1e-07 0 0 0 0 0 0 
323 -0.840337 -0.585831 -0.256295 1e-07 0 0 0 0 0 0 
324 -0.254062 -0.0422117 0.00634592 1e-07 0 0 0 0 0 0 
325 -0.0902464 0.00338115 0.00519046 1e-07 0 0 0 0 0 0 
326 0.00192525 0.000227968 7.28623e-06 1e-07 0 0 0 0 0 0 
327 0.000129542 -1.03187e-05 -2.76156e-06 1e-07 0 0 0 0 0 0 
328 0.00645067 0.00254345 0.000203168 1e-07 0 0 0 0 0 0 
329 -0.772168 -0.632154 -0.205798 1e-07 0 0 0 0 0 0 
330 -0.501047 -0.230736 -0.0248888 1e-07 0 0 0 0 0 0 
331 0.00439037 0.000976931 7.90869e-05 1e-07 0 0 0 0 0 0 
332 0.000376912 -1.96705e-05 -7.81596e-06 1e-07 0 0 0 0 0 0 
333 -8.14734e-06 -6.48522e-06 -4.66733e-07 1e-07 0 0 0 0 0 0 
334 -0.776007 -0.80134 -0.664262 1e-07 0 0 0 0 0 0 
335 -0.0345397 0.00534257 0.00186223 1e-07 0 0 0 0 0 0 
336 -0.00144647 0.00440074 0.000604929 1e-07 0 0 0 0 0 0 
337 -0.363683 -0.105257 -0.00662322 1e-07 0 0 0 0 0 0 
338 -0.122752 -0.0157702 0.000748783 1e-07 0 0 0 0 0 0 
339 8.5638e-05 -2.93396e-05 -1.98585e-06 1e-07 0 0 0 0 0 0 
340 0.00209881 0.000385857 6.98483e-06 1e-07 0 0 0 0 0 0 
341 -3.72682e-05 -1.58384e-05 -3.70146e-07 1e-07 0 0 0 0 0 0 
342 -0.778665 -0.600281 -0.228535 1e-07 0 0 0 0 0 0 
343 0.00307578 0.00190056 0.000210892 1e-07 0 0 0 0 0 0 
344 -0.581986 -0.23764 -0.0268222 1e-07 0 0 0 0 0 0 
345 0.000679317 -2.17759e-05 -1.15413e-05 1e-07 0 0 0 0 0 0 
346 -0.0861837 -0.00510023 0.00257913 1e-07 0 0 0 0 0 0 
347 -0.706396 -0.733388 -0.558675 1e-07 0 0 0 0 0 0 
348 0.000149828 3.54174e-06 -1.03829e-06 1e-07 0 0 0 0 0 0 
349 -0.272454 -0.0635795 0.000871187 1e-07 0 0 0 0 0 0 
350 0.00462348 0.00307005 0.000420123 1e-07 0 0 0 0 0 0 
351 -0.0031507 0.00660504 0.00129889 1e-07 0 0 0 0 0 0 
352 0.00175865 0.000183915 -9.03962e-06 1e-07 0 0 0 0 0 0 
353 0.00385904 0.000958984 0.000184429 1e-07 0 0 0 0 0 0 
354 0.000694077 4.68084e-05 -3.90761e-06 1e-07 0 0 0 0 0 0 
355 -0.652784 -0.652055 -0.265361 1e-07 0 0 0 0 0 0 
356 -0.261011 -0.0656752 -0.000843776 1e-07 0 0 0 0 0 0 
357 -0.00263658 0.00798366 0.00169645 1e-07 0 0 0 0 0 0 
358 -0.505333 -0.266453 -0.0454965 1e-07 0 0 0 0 0 0 
359 -0.0684043 -2.51285e-05 0.00325478 1e-07 0 0 0 0 0 0 
360 0.000254201 8.77258e-06 -1.79367e-06 1e-07 0 0 0 0 0 0 
361 0.00557131 0.00144521 0.000108797 1e-07 0 0 0 0 0 0 
362 -0.5764 -0.643626 -0.662027 1e-07 0 0 0 0 0 0 
363 0.00827337 0.00430775 0.000550017 1e-07 0 0 0 0 0 0 
364 -0.500323 -0.24294 -0.0529809 1e-07 0 0 0 0 0 0 
365 -0.0785352 -0.00774775 0.00186948 1e-07 0 0 0 0 0 0 
366 0.000200992 -1.84884e-06 -1.90895e-06 1e-07 0 0 0 0 0 0 
367 -0.672899 -0.51698 -0.229419 1e-07 0 0 0 0 0 0 
368 0.00244183 0.000323373 -3.52879e-06 1e-07 0 0 0 0 0 0 
369 -0.248245 -0.0718655 -0.00609967 1e-07 0 0 0 0 0 0 
370 0.00631964 0.00238062 0.000145314 1e-07 0 0 0 0 0 0 
371 0.000701361 1.81804e-05 -7.88187e-06 1e-07 0 0 0 0 0 0 
372 -0.560481 -0.533456 -0.207637 1e-07 0 0 0 0 0 0 
373 0.0037309 0.000806322 1.32775e-05 1e-07 0 0 0 0 0 0 
374 -0.0248063 0.00207989 0.00108398 1e-07 0 0 0 0 0 0 
375 0.00291392 0.0040723 0.000598253 1e-07 0 0 0 0 0 0 
376 -0.30031 -0.0962082 -0.00883663 1e-07 0 0 0 0 0 0 
377 3.58313e-05 -1.19067e-05 -2.55024e-06 1e-07 0 0 0 0 0 0 
378 -0.473254 -0.243384 -0.0368653 1e-07 0 0 0 0 0 0 
379 -0.50974 -0.569795 -0.510432 1e-07 0 0 0 0 0 0 
380 -0.119573 -0.0246508 -0.00124352 1e-07 0 0 0 0 0 0 
381 0.00276701 0.000516626 3.91164e-05 1e-07 0 0 0 0 0 0 
382 0.000361145 2.64998e-05 9.58357e-07 1e-07 0 0 0 0 0 0 
383 0.00418404 0.00190361 0.000200025 1e-07 0 0 0 0 0 0 
384 8.07464e-05 5.4746e-07 -4.48782e-07 1e-07 0 0 0 0 0 0 
385 -0.461799 -0.227199 -0.0346833 1e-07 0 0 0 0 0 0 
386 -0.522145 -0.463289 -0.19462 1e-07 0 0 0 0 0 0 
387 -0.118597 -0.0248099 -0.000869308 1e-07 0 0 0 0 0 0 
388 0.00110548 0.00013737 8.18646e-06 1e-07 0 0 0 0 0 0 
389 -0.272599 -0.0850568 -0.00565407 1e-07 0 0 0 0 0 0 
390 -0.0392163 -0.00311395 0.000238489 1e-07 0 0 0 0 0 0 
391 0.000998975 0.00153528 -4.27495e-05 1e-07 0 0 0 0 0 0 
392 -0.00483944 0.00136702 0.00154776 1e-07 0 0 0 0 0 0 
393 1.61763e-05 -4.03884e-06 -3.35512e-07 1e-07 0 0 0 0 0 0 
394 -0.418737 -0.473336 -0.390231 1e-07 0 0 0 0 0 0 
395 0.000806276 3.91676e-05 -1.10204e-05 1e-07 0 0 0 0 0 0 
396 0.00165121 0.000285212 -1.20143e-05 1e-07 0 0 0 0 0 0 
397 -0.214499 -0.0562023 -0.00285576 1e-07 0 0 0 0 0 0 
398 -0.0778469 -0.00851769 0.000958173 1e-07 0 0 0 0 0 0 
399 1.04634e-05 -1.26293e-05 -1.17838e-06 1e-07 0 0 0 0 0 0 
400 -0.00203715 0.00133493 0.000280799 1e-07 0 0 0 0 0 0 
401 0.000201674 -8.79632e-06 -3.96461e-06 1e-07 0 0 0 0 0 0 
402 -0.416618 -0.354048 -0.140766 1e-07 0 0 0 0 0 0 
403 -0.0275849 -0.000376224 0.000635118 1e-07 0 0 0 0 0 0 
404 0.00118657 0.00041134 8.00889e-07 1e-07 0 0 0 0 0 0 
405 -0.322936 -0.149803 -0.02251 1e-07 0 0 0 0 0 0 
406 0.000231044 3.18569e-06 -2.71641e-06 1e-07 0 0 0 0 0 0 
407 0.000898561 0.000276042 -6.23144e-06 1e-07 0 0 0 0 0 0 
408 -0.0394999 -0.000155852 0.00140825 1e-07 0 0 0 0 0 0 
409 -3.98287e-06 -3.54987e-06 -1.43406e-07 1e-07 0 0 0 0 0 0 
410 -0.236459 -0.0742803 -0.00390642 1e-07 0 0 0 0 0 0 
411 -0.337856 -0.377024 -0.316184 1e-07 0 0 0 0 0 0 
412 0.000526005 4.81167e-05 -4.88085e-06 1e-07 0 0 0 0 0 0 
413 -0.106576 -0.0133261 0.00219062 1e-07 0 0 0 0 0 0 
414 6.76407e-05 2.41794e-06 -1.75614e-07 1e-07 0 0 0 0 0 0 
415 -0.307942 -0.164897 -0.0271501 1e-07 0 0 0 0 0 0 
416 -0.00910063 0.000772471 0.000277274 1e-07 0 0 0 0 0 0 
417 1.01708e-05 3.73832e-07 1.18034e-07 1e-07 0 0 0 0 0 0 
418 6.09325e-05 0.000728773 1.20388e-05 1e-07 0 0 0 0 0 0 
419 -0.331201 -0.313797 -0.134604 1e-07 0 0 0 0 0 0 
420 0.000285109 3.16204e-05 5.84242e-06 1e-07 0 0 0 0 0 0 
421 -0.127277 -0.0282677 -0.00120902 1e-07 0 0 0 0 0 0 
422 9.85759e-05 1.12777e-05 1.22757e-06 1e-07 0 0 0 0 0 0 
423 -0.244958 -0.0964452 -0.0115062 1e-07 0 0 0 0 0 0 
424 0.000473867 5.61163e-05 1.96931e-05 1e-07 0 0 0 0 0 0 
425 -0.06518 -0.0109939 -0.000277529 1e-07 0 0 0 0 0 0 
426 0.00117764 0.000253907 -2.699e-05 1e-07 0 0 0 0 0 0 
427 -0.020146 -0.00226275 -9.4581e-05 1e-07 0 0 0 0 0 0 
428 -0.258504 -0.295956 -0.281284 1e-07 0 0 0 0 0 0 
429 2.28884e-06 1.46238e-07 6.07812e-08 1e-07 0 0 0 0 0 0 
430 2.73077e-05 3.2686e-06 1.13961e-08 1e-07 0 0 0 0 0 0 
431 -0.270463 -0.159996 -0.0299441 1e-07 0 0 0 0 0 0 
432 5.55066e-06 5.49833e-07 -4.04124e-08 1e-07 0 0 0 0 0 0 
433 8.72035e-05 8.89198e-06 3.94644e-06 1e-07 0 0 0 0 0 0 
434 -0.263248 -0.26945 -0.125749 1e-07 0 0 0 0 0 0 
435 -0.0816123 -0.0145497 1.44931e-05 1e-07 0 0 0 0 0 0 
436 2.55779e-05 3.57719e-06 -4.134e-07 1e-07 0 0 0 0 0 0 
437 -0.0105046 -0.000411228 -9.6258e-05 1e-07 0 0 0 0 0 0 
438 -1.32083e-05 3.7027e-05 7.04161e-07 1e-07 0 0 0 0 0 0 
439 2.10203e-05 2.7133e-06 9.80519e-07 1e-07 0 0 0 0 0 0 
440 -0.216321 -0.0847214 -0.00672648 1e-07 0 0 0 0 0 0 
441 -0.20885 -0.241104 -0.220879 1e-07 0 0 0 0 0 0 
442 -0.138907 -0.0343144 -0.000631889 1e-07 0 0 0 0 0 0 
443 1.03317e-06 1.13776e-07 2.34406e-08 1e-07 0 0 0 0 0 0 
444 5.39684e-06 2.60441e-08 2.13076e-06 1e-07 0 0 0 0 0 0 
445 -0.0332275 -0.00379348 0.000121198 1e-07 0 0 0 0 0 0 
446 -0.00281985 -6.7918e-05 -9.03824e-05 1e-07 0 0 0 0 0 0 
447 -0.202083 -0.205974 -0.094078 1e-07 0 0 0 0 0 0 
448 -6.22704e-07 2.25481e-07 -2.14703e-08 1e-07 0 0 0 0 0 0 
449 8.594e-06 6.87421e-07 -3.24593e-07 1e-07 0 0 0 0 0 0 
450 -0.209806 -0.123147 -0.0191001 1e-07 0 0 0 0 0 0 
451 -7.03069e-06 1.50646e-06 -1.64421e-07 1e-07 0 0 0 0 0 0 
452 -0.0985286 -0.0220157 -0.000708715 1e-07 0 0 0 0 0 0 
453 -0.0469188 -0.00706994 -2.17365e-05 1e-07 0 0 0 0 0 0 
454 -0.157885 -0.185893 -0.174518 1e-07 0 0 0 0 0 0 
455 -4.82011e-05 1.72209e-06 1.05767e-06 1e-07 0 0 0 0 0 0 
456 -9.09634e-07 8.70885e-08 5.70882e-08 1e-07 0 0 0 0 0 0 
457 -0.153962 -0.0648003 -0.00720262 1e-07 0 0 0 0 0 0 
458 -4.07972e-06 1.04703e-07 -2.06781e-07 1e-07 0 0 0 0 0 0 
459 -0.00263129 -0.000130407 -5.44513e-06 1e-07 0 0 0 0 0 0 
460 -0.0192858 -0.0018115 8.32063e-05 1e-07 0 0 0 0 0 0 
461 -3.0641e-05 3.54247e-05 4.03622e-07 1e-07 0 0 0 0 0 0 
462 -0.00679018 -0.00081031 -0.000206566 1e-07 0 0 0 0 0 0 
463 -0.113522 -0.0588702 -0.0106667 1e-07 0 0 0 0 0 0 
464 -0.00059867 5.8348e-05 3.32768e-05 1e-07 0 0 0 0 0 0 
465 -0.126769 -0.138465 -0.121543 1e-07 0 0 0 0 0 0 
466 8.20187e-07 1.26213e-07 7.13407e-08 1e-07 0 0 0 0 0 0 
467 1.28213e-05 9.38197e-07 -4.74818e-08 1e-07 0 0 0 0 0 0 
468 -0.119718 -0.105189 -0.0441062 1e-07 0 0 0 0 0 0 
469 1.83661e-06 1.67876e-07 5.63157e-08 1e-07 0 0 0 0 0 0 
470 -0.0219153 -0.00235348 0.000405888 1e-07 0 0 0 0 0 0 
471 -5.64029e-05 1.27688e-06 -1.84722e-07 1e-07 0 0 0 0 0 0 
472 -0.00930873 -0.000946701 -2.86618e-05 1e-07 0 0 0 0 0 0 
473 -0.000363177 -1.81678e-06 6.85423e-06 1e-07 0 0 0 0 0 0 
474 -0.0661411 -0.022528 -0.00118995 1e-07 0 0 0 0 0 0 
475 2.11677e-05 1.77392e-06 -2.50694e-07 1e-07 0 0 0 0 0 0 
476 -0.0403516 -0.00801646 0.000426798 1e-07 0 0 0 0 0 0 
477 -1.11464e-05 -3.04045e-06 -4.59011e-07 1e-07 0 0 0 0 0 0 
478 -0.00411628 -0.000433588 -3.23776e-05 1e-07 0 0 0 0 0 0 
479 -0.00116884 -0.000105143 -9.3626e-06 1e-07 0 0 0 0 0 0 
480 -0.0793416 -0.0753244 -0.0328548 1e-07 0 0 0 0 0 0 
481 4.88913e-07 4.39213e-08 6.42342e-08 1e-07 0 0 0 0 0 0 
482 -0.0630814 -0.0359683 -0.00689068 1e-07 0 0 0 0 0 0 
483 1.02784e-05 7.66228e-07 -4.66029e-08 1e-07 0 0 0 0 0 0 
484 -0.0603718 -0.0695922 -0.0760669 1e-07 0 0 0 0 0 0 
485 -1.02006e-06 -1.43413e-08 9.42727e-08 1e-07 0 0 0 0 0 0 
486 -0.00505247 -0.000779787 -5.48459e-05 1e-07 0 0 0 0 0 0 
487 -0.0143348 -0.00276462 -4.10007e-05 1e-07 0 0 0 0 0 0 
488 -0.000416277 -4.6888e-05 -3.93764e-06 1e-07 0 0 0 0 0 0 
489 -7.31467e-05 -1.27714e-05 1.67175e-07 1e-07 0 0 0 0 0 0 
490 -0.0337531 -0.016886 -0.00302665 1e-07 0 0 0 0 0 0 
491 -0.0294282 -0.0329934 -0.0313101 1e-07 0 0 0 0 0 0 
492 -0.00252291 0.00292607 0.00128092 1e-07 0 0 0 0 0 0 
493 -0.00658511 -0.00220146 -0.000229711 1e-07 0 0 0 0 0 0 
494 -0.0206485 -0.0219158 -0.0097315 1e-07 0 0 0 0 0 0 
495 -0.00110442 -0.000149178 -2.40323e-05 1e-07 0 0 0 0 0 0 
496 -4.3279e-06 -3.11279e-07 1.11194e-07 1e-07 0 0 0 0 0 0 
497 -0.000586603 -0.000111678 -1.79377e-05 1e-07 0 0 0 0 0 0 
498 -8.41226e-07 4.87753e-08 1.02788e-07 1e-07 0 0 0 0 0 0 
499 -3.21031e-05 -3.98892e-06 4.99251e-07 1e-07 0 0 0 0 0 0 
500 -9.36019e-06 -6.54029e-07 1.8681e-07 1e-07 0 0 0 0 0 0 
501 -2.59577e-06 -4.88133e-08 1.17728e-07 1e-07 0 0 0 0 0 0 
