VARIABLES = "Cell" "Mode 0" "Mode 1" "Mode 2" "Mode 3" "Mode 4" "Mode 5" "Mode 6" "Mode 7" "Mode 8" "Mode 9" 
ZONE T = Iteration11
0 -0.0184306 -0.0173889 -0.0168644 -0.0157691 -0.0139175 -0.0123899 -0.0130543 -0.0171139 -0.0229829 -0.0254703 
1 0.0536946 0.0176053 0.000685308 -0.0093233 -0.01807 -0.0242611 -0.0241659 -0.0178397 -0.00996498 -0.00496906 
2 -0.085076 -0.0503805 -0.0337625 -0.0286045 -0.0274892 -0.0246018 -0.0206245 -0.0181877 -0.0151697 -0.00929922 
3 -0.0313935 -0.0320019 -0.0324561 -0.032959 -0.0333775 -0.0333214 -0.0324552 -0.0310917 -0.0306449 -0.0327858 
4 2.99672 1.45316 0.722801 0.35794 0.16388 0.0597767 0.0133657 0.000152255 -0.000850109 -0.000191896 
5 -0.0589966 -0.0478079 -0.041212 -0.0362925 -0.0333883 -0.0343921 -0.0397272 -0.0456399 -0.0446687 -0.0324724 
6 -0.54969 -0.208716 -0.0983611 -0.0592997 -0.0491915 -0.0435171 -0.0304221 -0.0143026 -0.00380404 -0.000338697 
7 -0.279774 -0.152181 -0.0929959 -0.0613812 -0.0377087 -0.0185965 -0.00655769 -0.00142195 -0.000120044 1.18252e-05 
8 -0.1317 -0.0793839 -0.0458408 -0.0246996 -0.0115666 -0.00431988 -0.00118405 -0.000213224 -1.99264e-05 -2.96177e-07 
9 -0.211414 -0.127757 -0.0865328 -0.058231 -0.0345139 -0.0164961 -0.00585041 -0.00137335 -0.000166062 -2.92768e-07 
10 -0.120771 -0.0755312 -0.0414537 -0.0197601 -0.00787014 -0.00245674 -0.000549258 -7.46056e-05 -3.27736e-06 4.59902e-07 
11 -0.170576 -0.123316 -0.0824451 -0.0486551 -0.0244082 -0.0098269 -0.00293266 -0.000570386 -5.13284e-05 2.30377e-06 
12 0.141799 0.0481707 -0.00177522 -0.0256984 -0.0330951 -0.0395024 -0.0523816 -0.0570199 -0.0400971 -0.016006 
13 -0.823218 -0.438227 -0.250223 -0.150594 -0.0969991 -0.0754365 -0.0632297 -0.043438 -0.0198433 -0.00510873 
14 -0.278847 -0.187167 -0.134855 -0.0983527 -0.0663921 -0.0379007 -0.0164949 -0.00482772 -0.000760574 -1.90597e-05 
15 -0.324479 -0.188763 -0.130692 -0.105503 -0.0845907 -0.0587577 -0.0321707 -0.0125672 -0.00302075 -0.000312297 
16 -0.149267 -0.102619 -0.0554591 -0.0237049 -0.00781387 -0.00185978 -0.000262704 -7.27609e-07 8.33324e-06 1.7983e-06 
17 -0.0622321 -0.0622982 -0.0623164 -0.0623288 -0.0624536 -0.0627313 -0.0627229 -0.0616304 -0.060041 -0.0619096 
18 -0.0694684 -0.0693147 -0.0692886 -0.0692635 -0.068749 -0.0675288 -0.0675705 -0.0724125 -0.0791328 -0.0711502 
19 -0.141933 -0.154491 -0.124487 -0.0736836 -0.0326622 -0.0107187 -0.00238592 -0.000257777 2.38077e-05 1.19936e-05 
20 -0.0798897 -0.0798985 -0.0799859 -0.0802785 -0.0805348 -0.0799372 -0.0783064 -0.0781991 -0.0835407 -0.0901378 
21 -0.175576 -0.145093 -0.0913421 -0.0441472 -0.0161816 -0.00429055 -0.000699235 -1.90977e-05 2.05173e-05 4.94328e-06 
22 -0.23364 -0.169905 -0.135707 -0.133301 -0.14037 -0.125054 -0.0896672 -0.0502077 -0.0197314 -0.00443473 
23 -0.0731706 -0.0947616 -0.113914 -0.13268 -0.127825 -0.0964233 -0.0569737 -0.0251261 -0.00733651 -0.00110321 
24 -0.0839702 -0.0910513 -0.097146 -0.0979092 -0.0916429 -0.0894174 -0.101405 -0.112606 -0.0935847 -0.0458254 
25 -0.143834 -0.168966 -0.182155 -0.146985 -0.0858439 -0.0372548 -0.0118503 -0.00246514 -0.000225258 2.24242e-05 
26 -0.104644 -0.103351 -0.103034 -0.10335 -0.102486 -0.100989 -0.103932 -0.112681 -0.111031 -0.0752158 
27 -0.153477 -0.190079 -0.17813 -0.120628 -0.0594278 -0.0213858 -0.00530232 -0.000710251 1.94854e-05 2.38973e-05 
28 -0.0893215 -0.113538 -0.153683 -0.189042 -0.173437 -0.113361 -0.0537504 -0.0179271 -0.00371368 -0.000341077 
29 -0.13349 -0.125199 -0.115482 -0.123858 -0.149937 -0.160259 -0.131957 -0.0836441 -0.0387416 -0.0106084 
30 -0.10668 -0.150217 -0.194021 -0.192405 -0.13524 -0.0685934 -0.0256541 -0.00670748 -0.00103125 -4.30667e-05 
31 -0.167118 -0.154334 -0.135137 -0.116414 -0.12294 -0.155794 -0.16962 -0.134286 -0.0748314 -0.0248708 
32 -0.11687 -0.116775 -0.11671 -0.116976 -0.1175 -0.117023 -0.114783 -0.114445 -0.121926 -0.131174 
33 -0.257637 -0.214566 -0.135076 -0.0648658 -0.023575 -0.0061802 -0.0010263 -6.28929e-05 1.10678e-05 2.36171e-06 
34 -0.136859 -0.136957 -0.137268 -0.137887 -0.137233 -0.134466 -0.134405 -0.142996 -0.150413 -0.127833 
35 -0.283551 -0.201731 -0.109734 -0.0458772 -0.014419 -0.0031795 -0.000411121 -9.78602e-06 4.83891e-06 4.59478e-07 
36 -0.256803 -0.272268 -0.212722 -0.123434 -0.0535819 -0.0169594 -0.00358391 -0.000390109 8.08013e-06 6.36351e-06 
37 -0.181871 -0.169344 -0.18558 -0.23097 -0.244109 -0.183095 -0.0935498 -0.0317193 -0.00642242 -0.000607449 
38 -0.133134 -0.13313 -0.133038 -0.132934 -0.133155 -0.133701 -0.133395 -0.131296 -0.130183 -0.135383 
39 -0.179547 -0.181413 -0.169787 -0.161959 -0.18712 -0.222115 -0.199278 -0.116984 -0.0418247 -0.00805151 
40 -0.202161 -0.199402 -0.229461 -0.250216 -0.211935 -0.129089 -0.054712 -0.0153476 -0.00253194 -0.000200341 
41 -0.187246 -0.188663 -0.183355 -0.162486 -0.158838 -0.199164 -0.231904 -0.182052 -0.0859006 -0.0224807 
42 -0.22116 -0.20505 -0.188776 -0.209609 -0.2551 -0.248657 -0.168603 -0.0760251 -0.0209573 -0.00293903 
43 -0.171066 -0.170925 -0.169174 -0.170974 -0.176702 -0.170081 -0.152253 -0.167928 -0.2102 -0.17729 
44 -0.290197 -0.325289 -0.282119 -0.185374 -0.0924403 -0.0335487 -0.00818216 -0.0011745 -7.78511e-05 -7.21071e-06 
45 -0.167728 -0.16775 -0.16777 -0.167665 -0.167463 -0.16796 -0.169282 -0.167921 -0.16247 -0.166466 
46 -0.353791 -0.258 -0.144215 -0.061631 -0.0195752 -0.00423967 -0.000491783 5.48877e-06 7.09993e-06 -2.89397e-07 
47 -0.231213 -0.266283 -0.323404 -0.315739 -0.227621 -0.119555 -0.0442285 -0.0105553 -0.00131302 -1.91557e-05 
48 -0.205528 -0.207906 -0.216128 -0.213026 -0.19324 -0.198311 -0.242754 -0.243812 -0.15427 -0.0537086 
49 -0.201479 -0.198287 -0.199808 -0.208512 -0.200998 -0.177446 -0.197267 -0.256303 -0.23026 -0.113295 
50 -0.26962 -0.335764 -0.346439 -0.264421 -0.149606 -0.0617917 -0.0175162 -0.00304585 -0.000253427 -6.25858e-06 
51 -0.200045 -0.200132 -0.199789 -0.199422 -0.201345 -0.202658 -0.194623 -0.190173 -0.2194 -0.233734 
52 -0.196556 -0.196587 -0.196538 -0.196166 -0.1964 -0.198361 -0.197483 -0.188931 -0.190698 -0.221779 
53 -0.375378 -0.386636 -0.294153 -0.16404 -0.0672808 -0.0193407 -0.0033822 -0.000203 3.05574e-05 1.44448e-06 
54 -0.414069 -0.340566 -0.212827 -0.100369 -0.034935 -0.0083189 -0.00109903 -1.07545e-05 1.34112e-05 -9.41163e-07 
55 -0.281847 -0.269604 -0.249091 -0.267323 -0.316156 -0.314009 -0.220165 -0.100654 -0.0272304 -0.00318308 
56 -0.259484 -0.26452 -0.266961 -0.254202 -0.248511 -0.283085 -0.308626 -0.250599 -0.12987 -0.0371244 
57 -0.281368 -0.294719 -0.354338 -0.382451 -0.311811 -0.185881 -0.0789779 -0.0213713 -0.00278964 8.78983e-05 
58 -0.224392 -0.224417 -0.22439 -0.224172 -0.223887 -0.224632 -0.226318 -0.223635 -0.214863 -0.219815 
59 -0.250763 -0.250227 -0.249496 -0.253548 -0.253547 -0.237222 -0.241442 -0.292474 -0.288849 -0.159663 
60 -0.335757 -0.404715 -0.421385 -0.320534 -0.171639 -0.0650488 -0.0163915 -0.0020837 8.75286e-05 6.26375e-05 
61 -0.494909 -0.353031 -0.189851 -0.0772785 -0.0226773 -0.00413259 -0.00021174 8.39222e-05 1.41915e-05 -9.45225e-07 
62 -0.244653 -0.245105 -0.243994 -0.244073 -0.249329 -0.244948 -0.226979 -0.246982 -0.302505 -0.246941 
63 -0.298027 -0.27371 -0.303775 -0.380737 -0.388914 -0.283153 -0.144708 -0.0472391 -0.00780782 3.48856e-05 
64 -0.398761 -0.442321 -0.384473 -0.243731 -0.110491 -0.0349342 -0.00680095 -0.000408597 0.000130547 2.71219e-05 
65 -0.290075 -0.293768 -0.280985 -0.269572 -0.300723 -0.343287 -0.302818 -0.179617 -0.0649772 -0.0116792 
66 -0.284622 -0.283721 -0.285228 -0.284681 -0.27603 -0.281081 -0.316727 -0.315661 -0.222431 -0.0912635 
67 -0.256399 -0.256246 -0.256097 -0.256222 -0.256999 -0.258245 -0.25579 -0.247611 -0.253249 -0.290366 
68 -0.33329 -0.370029 -0.425359 -0.40178 -0.272782 -0.132213 -0.0446571 -0.00894139 -0.000452926 0.000202738 
69 -0.567092 -0.460509 -0.274308 -0.120571 -0.0377174 -0.00720249 -0.000266304 0.000239536 5.10131e-05 1.24245e-06 
70 -0.273922 -0.274015 -0.274581 -0.274495 -0.274387 -0.274368 -0.268847 -0.270377 -0.299897 -0.303264 
71 -0.533379 -0.549093 -0.412751 -0.226806 -0.090527 -0.0243158 -0.00316179 0.000361725 0.000215796 2.93066e-05 
72 -0.334416 -0.334875 -0.321392 -0.308547 -0.334772 -0.383311 -0.36409 -0.2399 -0.0978688 -0.0221468 
73 -0.275855 -0.275869 -0.275762 -0.275542 -0.27556 -0.27667 -0.278281 -0.275525 -0.267758 -0.274669 
74 -0.574242 -0.424748 -0.233914 -0.0944887 -0.026217 -0.00371186 0.000392215 0.000294043 4.8632e-05 7.78418e-07 
75 -0.318941 -0.323285 -0.324012 -0.308733 -0.295547 -0.32817 -0.382419 -0.351882 -0.209669 -0.0722441 
76 -0.347915 -0.32609 -0.359859 -0.433272 -0.446775 -0.323499 -0.149851 -0.0409561 -0.00367469 0.00123261 
77 -0.370479 -0.39108 -0.438366 -0.449093 -0.358401 -0.198672 -0.0705434 -0.0131515 0.000461423 0.000791492 
78 -0.51599 -0.589141 -0.526642 -0.349107 -0.169488 -0.0562495 -0.00998379 0.000450763 0.000681328 0.000137291 
79 -0.316046 -0.315608 -0.316587 -0.320871 -0.318762 -0.300261 -0.297306 -0.34938 -0.38657 -0.27552 
80 -0.409959 -0.51593 -0.578338 -0.49114 -0.307927 -0.136716 -0.0383705 -0.00438706 0.00104369 0.000454792 
81 -0.338687 -0.340484 -0.344862 -0.341381 -0.321967 -0.31762 -0.367904 -0.405974 -0.31228 -0.13944 
82 -0.382774 -0.373346 -0.354322 -0.363127 -0.422306 -0.458051 -0.375439 -0.207198 -0.0686507 -0.00978014 
83 -0.624819 -0.533226 -0.351929 -0.172472 -0.0590409 -0.0118561 -9.33624e-05 0.000696145 0.000181157 1.51956e-05 
84 -0.398095 -0.3836 -0.384728 -0.42574 -0.462388 -0.4065 -0.251162 -0.0987628 -0.0199157 0.00013449 
85 -0.314112 -0.313959 -0.314347 -0.315229 -0.316361 -0.315292 -0.30751 -0.301523 -0.325117 -0.369366 
86 -0.594071 -0.618949 -0.511075 -0.317464 -0.143435 -0.0442327 -0.00721031 0.000511938 0.000533067 9.79907e-05 
87 -0.339011 -0.339573 -0.340051 -0.340669 -0.340948 -0.334425 -0.323715 -0.340221 -0.383989 -0.351786 
88 -0.433627 -0.507905 -0.598816 -0.573687 -0.398397 -0.196648 -0.0656442 -0.0113331 0.000672526 0.000677471 
89 -0.652928 -0.511459 -0.308841 -0.138659 -0.0427969 -0.00673356 0.000813063 0.000689926 0.000137976 6.17394e-06 
90 -0.383258 -0.388357 -0.395385 -0.384917 -0.357013 -0.364367 -0.431002 -0.45577 -0.318024 -0.116644 
91 -0.537273 -0.61836 -0.6057 -0.467038 -0.268331 -0.110059 -0.0285719 -0.00246786 0.000994147 0.000319566 
92 -0.416669 -0.414582 -0.404819 -0.391358 -0.408558 -0.463442 -0.468716 -0.357143 -0.176861 -0.0432106 
93 -0.346428 -0.345925 -0.34552 -0.346032 -0.347842 -0.34928 -0.345248 -0.332976 -0.32699 -0.35354 
94 -0.423294 -0.437053 -0.517181 -0.585536 -0.521415 -0.343749 -0.16246 -0.0482403 -0.0057683 0.00102608 
95 -0.384533 -0.38334 -0.388188 -0.394421 -0.383632 -0.359758 -0.37204 -0.43655 -0.433096 -0.263268 
96 -0.639549 -0.69437 -0.622183 -0.424504 -0.215456 -0.0762028 -0.0150191 0.00047079 0.00110992 0.000242629 
97 -0.475649 -0.470753 -0.532003 -0.611648 -0.595875 -0.4372 -0.227708 -0.0765813 -0.0122149 0.000866444 
98 -0.47459 -0.451779 -0.409348 -0.407124 -0.481416 -0.568767 -0.548778 -0.366791 -0.152658 -0.0330869 
99 -0.716515 -0.632451 -0.440182 -0.231007 -0.0865722 -0.019374 -0.000384355 0.00121497 0.000331122 2.05015e-05 
100 -0.419415 -0.42079 -0.420999 -0.418705 -0.412831 -0.406952 -0.416363 -0.44842 -0.461672 -0.362962 
101 -0.401644 -0.401817 -0.404105 -0.407141 -0.405824 -0.395138 -0.382138 -0.392122 -0.440126 -0.47029 
102 -0.494659 -0.451156 -0.450992 -0.537532 -0.631234 -0.587225 -0.399235 -0.18499 -0.0494309 -0.00436756 
103 -0.541802 -0.574813 -0.642906 -0.655328 -0.535791 -0.322687 -0.133102 -0.0328356 -0.00252207 0.00088925 
104 -0.497267 -0.500122 -0.474986 -0.443122 -0.459203 -0.53698 -0.590319 -0.495546 -0.273696 -0.0872725 
105 -0.602467 -0.670866 -0.686658 -0.561122 -0.349946 -0.157555 -0.0447059 -0.00475363 0.00144884 0.000559972 
106 -0.473288 -0.485023 -0.48308 -0.454197 -0.426049 -0.454091 -0.547003 -0.592777 -0.460177 -0.230152 
107 -0.554834 -0.531993 -0.526064 -0.578551 -0.653732 -0.621133 -0.421384 -0.191746 -0.0538588 -0.00633233 
108 -0.800058 -0.61685 -0.379957 -0.177198 -0.0562849 -0.00879566 0.00121305 0.000936978 0.000157542 -7.40262e-06 
109 -0.44153 -0.440694 -0.439824 -0.440976 -0.444977 -0.447223 -0.438895 -0.42039 -0.415992 -0.451033 
110 -0.552857 -0.544017 -0.517729 -0.518711 -0.585113 -0.652315 -0.574866 -0.358527 -0.148761 -0.0339116 
111 -0.584023 -0.578738 -0.613797 -0.661525 -0.630126 -0.467106 -0.246585 -0.0859126 -0.0167277 -0.000451717 
112 -0.681087 -0.744521 -0.739761 -0.595781 -0.351107 -0.145524 -0.0399933 -0.0054765 0.000393144 0.000238025 
113 -0.51931 -0.527881 -0.533728 -0.521048 -0.493601 -0.492814 -0.551486 -0.613879 -0.546865 -0.31336 
114 -0.618097 -0.669032 -0.730066 -0.728492 -0.583298 -0.346171 -0.147918 -0.041883 -0.00603903 0.000203664 
115 -0.888339 -0.747903 -0.505199 -0.267718 -0.0997336 -0.0210051 8.50553e-05 0.00144056 0.000327169 -7.91614e-06 
116 -0.866432 -0.891584 -0.708268 -0.447148 -0.211076 -0.0662769 -0.0104708 0.00101153 0.000810677 9.94458e-05 
117 -0.581355 -0.575866 -0.56553 -0.571589 -0.614358 -0.663718 -0.624897 -0.436607 -0.203209 -0.054338 
118 -0.490273 -0.487395 -0.486903 -0.49282 -0.500242 -0.494265 -0.469838 -0.458971 -0.506359 -0.579162 
119 -0.521559 -0.524904 -0.534094 -0.537446 -0.520553 -0.494493 -0.504275 -0.57832 -0.630407 -0.508753 
120 -0.575882 -0.579394 -0.567994 -0.545119 -0.551372 -0.620587 -0.698357 -0.629249 -0.385123 -0.139969 
121 -0.639161 -0.692784 -0.744791 -0.743806 -0.653288 -0.450059 -0.218858 -0.069882 -0.0116721 0.000155948 
122 -0.867915 -0.941348 -0.774179 -0.474875 -0.237934 -0.0939059 -0.0240251 -0.00206177 0.000732655 0.000191132 
123 -0.90871 -0.665997 -0.386538 -0.181242 -0.0639077 -0.0138175 -0.000257096 0.000853195 0.000218659 2.49643e-06 
124 -0.640636 -0.58723 -0.569822 -0.649425 -0.767783 -0.762572 -0.579877 -0.321951 -0.116082 -0.0209481 
125 -0.52617 -0.52639 -0.525027 -0.523127 -0.524259 -0.529926 -0.533245 -0.523322 -0.506595 -0.518907 
126 -0.75414 -0.885854 -0.886118 -0.662121 -0.410379 -0.214544 -0.0811732 -0.0186543 -0.00153258 0.000356863 
127 -0.612592 -0.619136 -0.722906 -0.821952 -0.783696 -0.614375 -0.370904 -0.154915 -0.0369116 -0.00240259 
128 -0.972027 -0.834476 -0.540817 -0.27962 -0.118204 -0.0363034 -0.00554474 0.000732682 0.000494883 5.35874e-05 
129 -0.619247 -0.616033 -0.608295 -0.598666 -0.610098 -0.659527 -0.702252 -0.661325 -0.442927 -0.162033 
130 -0.586419 -0.589497 -0.597132 -0.599264 -0.584269 -0.563251 -0.576388 -0.637798 -0.682303 -0.558958 
131 -0.75071 -0.858147 -0.934608 -0.797704 -0.483861 -0.212995 -0.0665668 -0.0114045 0.000448317 0.000554047 
132 -0.673246 -0.647947 -0.613086 -0.619079 -0.701103 -0.784084 -0.70906 -0.494931 -0.245704 -0.0661184 
133 -0.636938 -0.63764 -0.625456 -0.608575 -0.603953 -0.643219 -0.708283 -0.710201 -0.603859 -0.335967 
134 -0.58549 -0.582979 -0.584068 -0.590156 -0.593571 -0.583286 -0.565862 -0.573177 -0.6303 -0.67395 
135 -0.976414 -0.84883 -0.554588 -0.265654 -0.0868371 -0.0137578 0.00266356 0.00214601 0.000476276 1.98761e-05 
136 -0.652276 -0.713326 -0.864857 -0.961439 -0.800811 -0.471886 -0.206825 -0.0604329 -0.00757676 0.00101086 
137 -0.93607 -0.975591 -0.826131 -0.540502 -0.255771 -0.0816178 -0.0139723 0.00115444 0.00121546 0.000206369 
138 -0.721262 -0.696588 -0.642178 -0.636533 -0.729086 -0.843703 -0.798804 -0.513664 -0.206476 -0.0452598 
139 -0.913922 -0.72722 -0.446111 -0.1969 -0.0549626 -0.00332903 0.00485767 0.00224711 0.000385489 -9.11148e-06 
140 -0.694878 -0.709497 -0.678497 -0.61569 -0.614378 -0.729115 -0.863559 -0.789143 -0.46793 -0.17653 
141 -0.62362 -0.621622 -0.61932 -0.61985 -0.623272 -0.623123 -0.613086 -0.601764 -0.618121 -0.668511 
142 -0.740971 -0.732242 -0.790619 -0.884352 -0.868769 -0.631661 -0.317523 -0.101512 -0.0142427 0.0020168 
143 -0.915023 -0.94829 -0.857721 -0.611929 -0.329589 -0.126255 -0.027872 0.000227549 0.00212275 0.0005747 
144 -0.736836 -0.703527 -0.721341 -0.827826 -0.928323 -0.85545 -0.5904 -0.274786 -0.072203 -0.00511481 
145 -0.952308 -0.850882 -0.636178 -0.371214 -0.154762 -0.0379808 2.73012e-05 0.00371215 0.00118884 8.25421e-05 
146 -0.850763 -0.922799 -0.953043 -0.844119 -0.612577 -0.344428 -0.131631 -0.0275781 0.000101955 0.00158668 
147 -0.713169 -0.723435 -0.727273 -0.704856 -0.679953 -0.703728 -0.778016 -0.795452 -0.609763 -0.292441 
148 -0.665813 -0.664366 -0.667089 -0.674394 -0.675966 -0.660584 -0.641474 -0.658594 -0.71502 -0.737598 
149 -0.78688 -0.777544 -0.799116 -0.870006 -0.920231 -0.828413 -0.581328 -0.302422 -0.10354 -0.014993 
150 -0.704934 -0.710686 -0.719709 -0.70977 -0.673891 -0.662168 -0.734621 -0.842241 -0.793041 -0.550178 
151 -0.778063 -0.768677 -0.759131 -0.789825 -0.874513 -0.907703 -0.774741 -0.535974 -0.284296 -0.0900686 
152 -0.998038 -0.829843 -0.566402 -0.306019 -0.121791 -0.0297495 -0.000672502 0.00262117 0.00100113 0.000151187 
153 -0.878616 -0.944342 -0.970173 -0.868994 -0.634711 -0.370437 -0.164198 -0.0476177 -0.00465157 0.00233401 
154 -0.684901 -0.684076 -0.68274 -0.683577 -0.688055 -0.691183 -0.685606 -0.674921 -0.681035 -0.71797 
155 -0.816645 -0.873749 -0.970627 -1.00477 -0.858674 -0.585676 -0.317134 -0.121836 -0.0234041 0.00238072 
156 -0.753636 -0.757375 -0.765601 -0.762436 -0.730925 -0.708006 -0.76942 -0.877437 -0.839766 -0.525719 
157 -1.00206 -1.05311 -0.939005 -0.68397 -0.398465 -0.175421 -0.0505326 -0.00515313 0.00241391 0.00121096 
158 -1.05019 -0.954438 -0.713763 -0.429361 -0.19969 -0.0648196 -0.0100098 0.00232349 0.00177914 0.000443637 
159 -0.814968 -0.809125 -0.804412 -0.821372 -0.886662 -0.951163 -0.851393 -0.567633 -0.271885 -0.0822949 
160 -0.731308 -0.729504 -0.727791 -0.731433 -0.74023 -0.738711 -0.712162 -0.693624 -0.748962 -0.842855 
161 -0.851532 -0.901615 -0.983107 -1.01169 -0.882054 -0.584541 -0.270692 -0.0773679 -0.00744049 0.00324113 
162 -0.759935 -0.759021 -0.763726 -0.770854 -0.763022 -0.732776 -0.726803 -0.811061 -0.899325 -0.752164 
163 -0.802894 -0.798913 -0.787112 -0.773283 -0.794052 -0.900886 -0.998597 -0.847695 -0.519127 -0.209524 
164 -0.935422 -1.01903 -1.01239 -0.849561 -0.588055 -0.312083 -0.110592 -0.0201778 0.00138466 0.00180851 
165 -0.852476 -0.842636 -0.863249 -0.925459 -0.984365 -0.945848 -0.717399 -0.36728 -0.109849 -0.0115369 
166 -0.848627 -0.857886 -0.930667 -1.01786 -0.996062 -0.79447 -0.468959 -0.177315 -0.0313496 0.00258251 
167 -1.06033 -0.864636 -0.568506 -0.29364 -0.111043 -0.02466 0.000458003 0.00231886 0.000706813 5.72359e-05 
168 -0.753464 -0.753866 -0.75275 -0.750386 -0.750949 -0.75765 -0.761608 -0.746456 -0.72303 -0.749572 
169 -0.804256 -0.804619 -0.808842 -0.810905 -0.798209 -0.77398 -0.782323 -0.86625 -0.946645 -0.778237 
170 -0.846527 -0.84226 -0.831695 -0.833169 -0.863956 -0.923387 -0.979491 -0.877309 -0.514614 -0.161965 
171 -0.96066 -1.05193 -1.05021 -0.855527 -0.540445 -0.248878 -0.0736992 -0.00872697 0.00242365 0.0011292 
172 -1.08753 -1.02172 -0.80057 -0.502449 -0.241221 -0.0797023 -0.0133714 0.00129327 0.00124867 0.000260331 
173 -0.871676 -0.858453 -0.859415 -0.898552 -0.960333 -0.978452 -0.880212 -0.59935 -0.253765 -0.0472967 
174 -0.843114 -0.844963 -0.838119 -0.826753 -0.834518 -0.872825 -0.937848 -0.983628 -0.808675 -0.410042 
175 -0.798486 -0.796959 -0.796698 -0.800311 -0.803492 -0.794514 -0.774116 -0.780903 -0.861441 -0.920338 
176 -0.879163 -0.878588 -0.960744 -1.05186 -1.00527 -0.741613 -0.380515 -0.117416 -0.0118965 0.00514323 
177 -0.899241 -0.981457 -1.08738 -1.03694 -0.789729 -0.460159 -0.181465 -0.0371762 0.00140973 0.00250075 
178 -1.11353 -1.05059 -0.83767 -0.537805 -0.257999 -0.0842732 -0.0152808 0.000381594 0.00086855 0.000167897 
179 -0.824367 -0.822882 -0.820712 -0.81978 -0.821209 -0.820345 -0.809014 -0.794516 -0.814788 -0.887035 
180 -0.904075 -0.885356 -0.872045 -0.920164 -1.02208 -1.03537 -0.830319 -0.500368 -0.195483 -0.0347594 
181 -0.914932 -0.898615 -0.926785 -1.01037 -1.03162 -0.881003 -0.572567 -0.257527 -0.0633861 -0.00110593 
182 -1.08644 -0.887669 -0.571224 -0.286958 -0.103192 -0.0217807 -0.000466059 0.00113488 0.000269216 2.00745e-05 
183 -0.940692 -1.01835 -1.10802 -1.06794 -0.778746 -0.404455 -0.143861 -0.0277416 0.000955151 0.00148648 
184 -0.881365 -0.881286 -0.87473 -0.858789 -0.873468 -0.952171 -1.0118 -0.949039 -0.762879 -0.38964 
185 -1.07507 -1.15855 -1.07561 -0.819809 -0.485857 -0.204024 -0.0528338 -0.00411525 0.00197475 0.000567038 
186 -0.856205 -0.857063 -0.858767 -0.860689 -0.855531 -0.840059 -0.836768 -0.872528 -0.930065 -0.948583 
187 -0.931796 -0.947862 -1.01381 -1.09508 -1.02389 -0.713399 -0.369041 -0.130483 -0.0215791 0.00203382 
188 -0.91286 -0.909528 -0.893522 -0.885243 -0.935323 -1.02482 -0.982998 -0.734637 -0.429693 -0.149372 
189 -1.11832 -1.03267 -0.731098 -0.370411 -0.126701 -0.0227825 0.00270051 0.00280054 0.000597852 2.14596e-05 
190 -0.882001 -0.879945 -0.880563 -0.872245 -0.85375 -0.876249 -0.972816 -1.01805 -0.901627 -0.687001 
191 -1.10908 -1.17241 -1.07008 -0.721047 -0.343507 -0.108308 -0.0139854 0.00508908 0.00277635 0.000427794 
192 -0.946591 -0.969544 -1.01283 -1.0579 -1.0405 -0.826772 -0.472897 -0.180266 -0.0341251 0.00207994 
193 -0.867363 -0.867702 -0.867774 -0.868655 -0.871983 -0.874983 -0.872372 -0.867185 -0.871803 -0.898537 
194 -1.03959 -0.908103 -0.628038 -0.315483 -0.106661 -0.0153768 0.00679915 0.00489391 0.00123753 9.04657e-05 
195 -0.931697 -0.924273 -0.924056 -0.930732 -0.946745 -0.986322 -1.00191 -0.810694 -0.410586 -0.108632 
196 -1.02369 -1.06922 -1.06966 -0.901099 -0.563099 -0.238768 -0.051626 0.00851259 0.00955043 0.00225567 
197 -0.934648 -0.921693 -0.947823 -1.0142 -1.09078 -1.07047 -0.831311 -0.469797 -0.156443 -0.0151248 
198 -0.922206 -0.914203 -0.904476 -0.903807 -0.90942 -0.928943 -1.00118 -1.07223 -0.863308 -0.400094 
199 -1.00002 -1.04727 -1.08907 -1.05777 -0.873017 -0.550165 -0.235197 -0.0523659 0.00438888 0.00575511 
200 -1.04123 -1.02193 -0.875767 -0.601704 -0.301045 -0.0903326 -0.00118966 0.0124492 0.0052198 0.00072584 
201 -0.90634 -0.909102 -0.909398 -0.901698 -0.890264 -0.888222 -0.907689 -0.961452 -1.03343 -0.980653 
202 -0.934736 -0.933704 -0.921055 -0.91154 -0.921739 -0.942508 -0.960173 -0.997914 -0.961019 -0.620299 
203 -0.972368 -0.948223 -0.952197 -1.00564 -1.06851 -1.06776 -0.89418 -0.51331 -0.158837 -0.00275052 
204 -0.987541 -1.0097 -1.05093 -1.05875 -0.979525 -0.77296 -0.468348 -0.182151 -0.0243517 0.0124324 
205 -0.920575 -0.918938 -0.918534 -0.914427 -0.902148 -0.886018 -0.880025 -0.90451 -0.975543 -1.04351 
206 -1.03063 -0.948403 -0.737095 -0.450641 -0.20003 -0.0495284 0.00468753 0.00901104 0.00299927 0.000271353 
207 -0.968076 -0.970456 -0.949354 -0.921711 -0.942306 -1.02752 -1.08773 -0.986324 -0.7197 -0.334305 
208 -1.00117 -1.03326 -1.09247 -1.10329 -0.977735 -0.719038 -0.38767 -0.122423 -0.00652903 0.011006 
209 -0.984887 -0.972337 -0.949294 -0.968677 -1.04233 -1.08736 -1.02014 -0.778781 -0.412611 -0.0942327 
210 -1.04303 -1.01519 -0.872449 -0.590951 -0.300888 -0.103014 -0.00934981 0.0111772 0.00530509 0.000632836 
211 -1.02676 -1.06001 -1.06433 -0.921152 -0.625509 -0.329485 -0.113244 -0.00911214 0.00986745 0.00424385 
212 -0.944889 -0.945929 -0.948244 -0.949801 -0.947515 -0.942312 -0.942598 -0.957958 -0.983455 -0.979892 
213 -0.963798 -0.971287 -0.970534 -0.950479 -0.935708 -0.968973 -1.04454 -1.04558 -0.875367 -0.617007 
214 -0.989811 -0.989257 -1.03062 -1.11798 -1.11946 -0.936261 -0.630473 -0.300732 -0.0656291 0.0131221 
215 -0.992818 -0.993541 -0.988917 -1.03654 -1.13288 -1.12612 -0.911392 -0.591076 -0.247907 -0.0310545 
216 -0.9475 -0.947573 -0.948753 -0.951407 -0.953304 -0.95137 -0.945964 -0.942717 -0.956283 -0.991622 
217 -1.01808 -1.03559 -1.03372 -0.957632 -0.712939 -0.372359 -0.11916 -0.0090297 0.0122254 0.00597816 
218 -1.04054 -0.942342 -0.682328 -0.361056 -0.121802 -0.00809139 0.0173804 0.00987998 0.00210273 -5.6218e-05 
219 -0.973241 -0.979869 -0.985676 -0.970579 -0.94445 -0.962183 -1.04368 -1.09415 -0.945993 -0.545111 
220 -0.981001 -0.996625 -1.00025 -0.997673 -1.03823 -1.1049 -1.03133 -0.800364 -0.518716 -0.195177 
221 -0.999165 -1.0154 -1.04644 -1.07506 -1.00772 -0.728156 -0.366773 -0.114396 -0.00310716 0.0128309 
222 -0.973687 -0.973758 -0.982619 -0.988624 -0.968233 -0.938094 -0.968004 -1.07836 -1.09467 -0.870743 
223 -1.03871 -1.07343 -1.04531 -0.835325 -0.476462 -0.1599 -0.00558644 0.0244936 0.0121808 0.00231201 
224 -0.967644 -0.965458 -0.966061 -0.97328 -0.977641 -0.961375 -0.935184 -0.95729 -1.04745 -1.10515 
225 -1.04557 -1.01652 -0.848273 -0.52496 -0.206655 -0.0247172 0.0254676 0.0175505 0.00463448 0.000228128 
226 -0.983065 -0.991319 -1.01068 -1.03325 -1.05838 -1.07844 -1.01228 -0.7162 -0.308504 -0.0644876 
227 -0.997647 -1.01103 -1.02231 -1.02184 -0.993921 -0.876873 -0.606044 -0.269384 -0.0507367 0.0101081 
228 -0.977039 -0.976253 -0.974569 -0.974744 -0.978717 -0.980353 -0.971331 -0.956756 -0.97184 -1.02652 
229 -0.991101 -0.989133 -0.993142 -1.00208 -0.994671 -0.964751 -0.979132 -1.08623 -1.10459 -0.682519 
230 -1.0198 -0.906352 -0.659926 -0.372171 -0.144527 -0.0245242 0.0110896 0.00932543 0.00288742 0.000404167 
231 -1.0159 -1.03103 -1.02346 -0.925933 -0.669105 -0.333468 -0.0866719 0.01177 0.0183993 0.00596738 
232 -0.986043 -0.982394 -0.99266 -1.01167 -1.0247 -1.0342 -1.04716 -0.980807 -0.661314 -0.230241 
233 -0.988697 -0.985768 -0.983231 -0.990698 -1.00775 -1.00334 -0.957697 -0.949128 -1.05982 -1.07601 
234 -1.00117 -1.0291 -1.06326 -1.06454 -0.955175 -0.694725 -0.361088 -0.103566 0.00154748 0.0126905 
235 -1.03387 -1.01561 -0.889435 -0.640656 -0.371374 -0.152327 -0.0242558 0.012811 0.00922585 0.00240969 
236 -0.995578 -0.993653 -0.989923 -0.988062 -0.99653 -1.01638 -1.02461 -0.999296 -0.972901 -0.965601 
237 -1.02321 -0.981378 -0.880761 -0.676609 -0.389687 -0.140632 -0.01102 0.0201619 0.0115168 0.00228581 
238 -0.99466 -0.995448 -0.994536 -0.99068 -0.986878 -0.989836 -0.999357 -1.00421 -1.00882 -1.04353 
239 -0.986855 -0.97921 -0.984091 -1.01431 -1.07048 -1.10626 -1.01668 -0.725824 -0.336571 -0.0672616 
240 -0.988052 -0.845036 -0.63978 -0.401943 -0.174006 -0.0296435 0.0167376 0.0140031 0.00418783 0.000260961 
241 -0.982102 -0.992948 -1.01607 -1.04273 -1.03218 -0.900529 -0.616971 -0.287471 -0.0654009 0.00942578 
242 -1.00066 -0.99063 -0.979427 -0.978978 -1.00146 -1.05191 -1.11239 -1.11046 -0.941801 -0.613108 
243 -1.0405 -1.05442 -1.0038 -0.887879 -0.678048 -0.394185 -0.137428 -0.00167221 0.0227194 0.00948228 
244 -0.97548 -1.0174 -1.05654 -1.04726 -0.946025 -0.731191 -0.423015 -0.142644 -0.00381373 0.0195473 
245 -0.99185 -0.984579 -0.981091 -0.989544 -1.01855 -1.06469 -1.07279 -0.934011 -0.605484 -0.241106 
246 -1.03606 -0.877841 -0.60775 -0.341569 -0.143101 -0.0278139 0.0125509 0.0116693 0.00356429 0.00031092 
247 -1.0011 -1.00254 -1.00348 -1.00171 -0.996367 -0.991077 -0.992987 -1.00631 -1.03024 -1.06346 
248 -1.05286 -1.0316 -0.875535 -0.621581 -0.367533 -0.161574 -0.0326685 0.0123527 0.0111296 0.00317728 
249 -1.00329 -1.00061 -0.992346 -0.982957 -0.981978 -0.999155 -1.0384 -1.08243 -1.06363 -0.898565 
250 -0.963493 -0.979229 -1.01177 -1.0377 -1.00811 -0.885345 -0.666566 -0.375126 -0.111972 0.0154734 
251 -0.979733 -0.982526 -0.993626 -1.01178 -1.02563 -1.01481 -0.939307 -0.725933 -0.392579 -0.091502 
252 -0.992469 -0.991737 -0.904411 -0.709244 -0.457131 -0.226272 -0.0704897 -0.000493159 0.0120074 0.00543568 
253 -0.995647 -0.994175 -0.988716 -0.982505 -0.984136 -1.00179 -1.03254 -1.05143 -1.00614 -0.833225 
254 -0.974943 -0.974091 -0.980581 -0.997016 -1.01525 -1.01537 -0.979512 -0.882373 -0.669851 -0.361112 
255 -0.942512 -0.960301 -1.0008 -1.04024 -1.02284 -0.881356 -0.607031 -0.297552 -0.0759827 0.00848241 
256 -0.980069 -1.044 -1.06878 -0.994503 -0.803386 -0.539928 -0.274717 -0.0796516 0.00652599 0.0148577 
257 -0.953375 -0.950642 -0.964204 -0.999239 -1.03993 -1.03339 -0.913684 -0.67388 -0.386278 -0.143059 
258 -0.99549 -0.998387 -0.997605 -0.989682 -0.977573 -0.973605 -0.994787 -1.04638 -1.09523 -1.06497 
259 -0.909224 -0.834092 -0.673071 -0.449644 -0.229829 -0.0759355 -0.00419956 0.0109728 0.00595849 0.00126487 
260 -0.946974 -0.940801 -0.94657 -0.971501 -1.00668 -1.02218 -0.957376 -0.770651 -0.501729 -0.212371 
261 -0.979181 -0.97975 -0.979746 -0.978106 -0.975446 -0.975826 -0.985218 -1.0035 -1.01316 -0.956057 
262 -0.917382 -0.967625 -0.983347 -0.903948 -0.708387 -0.43373 -0.181682 -0.0357028 0.00929292 0.00799604 
263 -0.962549 -0.954336 -0.940868 -0.93914 -0.967898 -1.02876 -1.0815 -1.02349 -0.80547 -0.515456 
264 -0.90552 -0.883792 -0.783515 -0.59438 -0.355359 -0.145127 -0.0253521 0.00985363 0.00756246 0.00170897 
265 -0.979416 -0.979693 -0.980044 -0.979582 -0.977615 -0.975414 -0.97735 -0.989556 -1.015 -1.04137 
266 -0.907664 -0.90369 -0.934348 -0.992904 -1.02305 -0.958819 -0.769615 -0.476489 -0.196532 -0.032034 
267 -0.875059 -0.795355 -0.63203 -0.415751 -0.20516 -0.059962 0.000957612 0.0092118 0.00359931 0.000405472 
268 -0.882129 -0.918727 -0.971658 -0.972189 -0.869293 -0.666849 -0.402742 -0.164969 -0.0300573 0.00771752 
269 -0.941362 -0.938845 -0.92682 -0.917063 -0.933317 -0.981445 -1.03109 -1.01816 -0.802481 -0.372306 
270 -0.913803 -0.899723 -0.896208 -0.92801 -0.984215 -0.994113 -0.908435 -0.71024 -0.387529 -0.105462 
271 -0.970053 -0.970198 -0.97095 -0.971626 -0.970123 -0.964819 -0.959179 -0.96489 -0.993754 -1.03428 
272 -0.880093 -0.802247 -0.617975 -0.378882 -0.170414 -0.0446986 0.00167394 0.00643624 0.00220757 0.000214181 
273 -0.859734 -0.892892 -0.940919 -0.93054 -0.782351 -0.52299 -0.256885 -0.0768032 -0.00591263 0.00383281 
274 -0.929283 -0.93092 -0.927064 -0.915855 -0.911273 -0.936454 -0.990056 -1.0176 -0.945997 -0.673407 
275 -0.883471 -0.869864 -0.865902 -0.905549 -0.983752 -1.00255 -0.836689 -0.511383 -0.202587 -0.035466 
276 -0.84704 -0.853453 -0.898295 -0.967677 -0.952688 -0.76374 -0.467827 -0.193529 -0.0393006 0.00270696 
277 -0.944179 -0.94583 -0.947411 -0.944479 -0.93421 -0.925421 -0.940083 -0.990647 -1.04701 -1.01073 
278 -0.865183 -0.910696 -0.895438 -0.755582 -0.496926 -0.230408 -0.0601954 0.00149323 0.00640105 0.00149972 
279 -0.875226 -0.854186 -0.725382 -0.494517 -0.246219 -0.0750072 -0.00333664 0.00797384 0.00293045 0.000160037 