VARIABLES = "Cell" "Mode 0" "Mode 1" "Mode 2" "Mode 3" "Mode 4" "Mode 5" "Mode 6" "Mode 7" "Mode 8" "Mode 9" 
ZONE T = Iteration1
0 0.0841962 0.0448124 -9.52912e-22 0 0 0 0 0 0 0 
1 0.102013 0.0507716 -9.52912e-22 0 0 0 0 0 0 0 
2 0.100354 0.0502299 -9.52912e-22 0 0 0 0 0 0 0 
3 0.0991547 0.0503377 -9.66147e-22 0 0 0 0 0 0 0 
4 0.0654965 0.0203673 -9.66147e-22 0 0 0 0 0 0 0 
5 0.102005 0.0507611 -9.39677e-22 0 0 0 0 0 0 0 
6 0.0880552 0.0473991 -9.66147e-22 0 0 0 0 0 0 0 
7 0.102016 0.050768 -9.52912e-22 0 0 0 0 0 0 0 
8 0.102017 0.050768 -9.79382e-22 0 0 0 0 0 0 0 
9 0.102016 0.050768 -9.66147e-22 0 0 0 0 0 0 0 
10 0.101812 0.0507828 -9.79382e-22 0 0 0 0 0 0 0 
11 0.102026 0.0507664 -9.79382e-22 0 0 0 0 0 0 0 
12 0.102017 0.050768 -9.66147e-22 0 0 0 0 0 0 0 
13 0.102016 0.050768 -9.79382e-22 0 0 0 0 0 0 0 
14 0.100534 0.0508466 -9.52912e-22 0 0 0 0 0 0 0 
15 0.102015 0.0507679 -9.92617e-22 0 0 0 0 0 0 0 
16 0.102016 0.0507671 -9.39677e-22 0 0 0 0 0 0 0 
17 0.0293887 -0.0231508 -9.66147e-22 0 0 0 0 0 0 0 
18 0.102017 0.050768 -9.92617e-22 0 0 0 0 0 0 0 
19 0.102016 0.050768 -9.92617e-22 0 0 0 0 0 0 0 
20 0.0662608 0.0437658 -9.39677e-22 0 0 0 0 0 0 0 
21 0.102088 0.0507561 -1.00585e-21 0 0 0 0 0 0 0 
22 0.102016 0.050768 -9.52912e-22 0 0 0 0 0 0 0 
23 0.102202 0.0508035 -9.92617e-22 0 0 0 0 0 0 0 
24 0.0220161 0.0168521 -9.26442e-22 0 0 0 0 0 0 0 
25 0.097728 0.051325 -9.66147e-22 0 0 0 0 0 0 0 
26 0.102016 0.0507679 -9.26442e-22 0 0 0 0 0 0 0 
27 0.102016 0.0507679 -9.92617e-22 0 0 0 0 0 0 0 
28 0.0797274 0.0486893 -9.92617e-22 0 0 0 0 0 0 0 
29 0.102031 0.0507673 -1.01909e-21 0 0 0 0 0 0 0 
30 0.100509 0.0511011 -9.66147e-22 0 0 0 0 0 0 0 
31 0.102016 0.0507679 -9.26442e-22 0 0 0 0 0 0 0 
32 0.102021 0.050768 -1.01909e-21 0 0 0 0 0 0 0 
33 0.102066 0.0507669 -9.26442e-22 0 0 0 0 0 0 0 
34 0.102389 0.0509387 -9.52912e-22 0 0 0 0 0 0 0 
35 0.102017 0.050768 -9.39677e-22 0 0 0 0 0 0 0 
36 -0.010319 0.00651486 -1.00585e-21 0 0 0 0 0 0 0 
37 0.0402352 0.0393351 -9.79382e-22 0 0 0 0 0 0 0 
38 0.102016 0.0507679 -1.04556e-21 0 0 0 0 0 0 0 
39 -0.039881 -0.0683512 -8.86738e-22 0 0 0 0 0 0 0 
40 0.102037 0.05077 -9.66147e-22 0 0 0 0 0 0 0 
41 0.102022 0.0507683 -1.01909e-21 0 0 0 0 0 0 0 
42 0.0947092 0.0506432 -9.13207e-22 0 0 0 0 0 0 0 
43 0.102606 0.0509085 -9.52912e-22 0 0 0 0 0 0 0 
44 0.102184 0.0507878 -9.52912e-22 0 0 0 0 0 0 0 
45 0.0650834 0.046225 -9.52912e-22 0 0 0 0 0 0 0 
46 0.102096 0.0507773 -8.99973e-22 0 0 0 0 0 0 0 
47 0.102491 0.0508326 -1.01909e-21 0 0 0 0 0 0 0 
48 0.100459 0.0510272 -1.03232e-21 0 0 0 0 0 0 0 
49 0.102021 0.0507681 -9.52912e-22 0 0 0 0 0 0 0 
50 0.102016 0.0507679 -9.13207e-22 0 0 0 0 0 0 0 
51 -0.0871041 -0.115521 -9.52912e-22 0 0 0 0 0 0 0 
52 0.0277553 0.0394903 -1.03232e-21 0 0 0 0 0 0 0 
53 0.102017 0.0507679 -9.66147e-22 0 0 0 0 0 0 0 
54 -0.0779815 -0.0202559 -1.01909e-21 0 0 0 0 0 0 0 
55 0.102095 0.0507761 -1.05879e-21 0 0 0 0 0 0 0 
56 0.0981926 0.0514343 -8.60268e-22 0 0 0 0 0 0 0 
57 0.102036 0.0507693 -8.73503e-22 0 0 0 0 0 0 0 
58 0.0743606 0.0495778 -8.86738e-22 0 0 0 0 0 0 0 
59 0.102948 0.0509815 -9.26442e-22 0 0 0 0 0 0 0 
60 0.102017 0.050768 -8.99973e-22 0 0 0 0 0 0 0 
61 -0.138921 -0.0529241 -9.66147e-22 0 0 0 0 0 0 0 
62 0.101247 0.0513773 -9.92617e-22 0 0 0 0 0 0 0 
63 0.102245 0.0507925 -8.99973e-22 0 0 0 0 0 0 0 
64 -0.150234 -0.201235 -9.66147e-22 0 0 0 0 0 0 0 
65 0.102036 0.0507693 -1.03232e-21 0 0 0 0 0 0 0 
66 0.102017 0.050768 -1.03232e-21 0 0 0 0 0 0 0 
67 0.0578001 0.0485819 -1.03232e-21 0 0 0 0 0 0 0 
68 0.10324 0.0513008 -9.66147e-22 0 0 0 0 0 0 0 
69 0.102452 0.0508285 -9.39677e-22 0 0 0 0 0 0 0 
70 0.102021 0.0507681 -8.86738e-22 0 0 0 0 0 0 0 
71 -0.0267613 0.02855 -1.07203e-21 0 0 0 0 0 0 0 
72 0.0907025 0.0515304 -1.08526e-21 0 0 0 0 0 0 0 
73 0.102086 0.0507749 -9.66147e-22 0 0 0 0 0 0 0 
74 -0.18413 -0.248524 -8.20563e-22 0 0 0 0 0 0 0 
75 0.102016 0.050768 -9.52912e-22 0 0 0 0 0 0 0 
76 0.102203 0.0507771 -1.0985e-21 0 0 0 0 0 0 0 
77 0.102126 0.0508955 -9.66147e-22 0 0 0 0 0 0 0 
78 0.0951335 0.0510276 -9.66147e-22 0 0 0 0 0 0 0 
79 0.102016 0.0507679 -9.92617e-22 0 0 0 0 0 0 0 
80 0.102025 0.050766 -9.92617e-22 0 0 0 0 0 0 0 
81 0.102016 0.0507679 -9.66147e-22 0 0 0 0 0 0 0 
82 -0.0804818 0.015761 -8.60268e-22 0 0 0 0 0 0 0 
83 -0.22712 -0.0952147 -1.04556e-21 0 0 0 0 0 0 0 
84 0.102066 0.0507648 -9.66147e-22 0 0 0 0 0 0 0 
85 0.102306 0.0508082 -9.13207e-22 0 0 0 0 0 0 0 
86 0.102013 0.0507669 -8.86738e-22 0 0 0 0 0 0 0 
87 0.0800294 0.0503656 -8.33798e-22 0 0 0 0 0 0 0 
88 0.102013 0.0507675 -1.03232e-21 0 0 0 0 0 0 0 
89 0.0215174 0.0443152 -1.07203e-21 0 0 0 0 0 0 0 
90 0.102231 0.0507916 -1.04556e-21 0 0 0 0 0 0 0 
91 -0.259609 -0.257313 -8.73503e-22 0 0 0 0 0 0 0 
92 0.102185 0.0507746 -8.73503e-22 0 0 0 0 0 0 0 
93 0.102016 0.050768 -1.08526e-21 0 0 0 0 0 0 0 
94 0.095818 0.0508617 -1.08526e-21 0 0 0 0 0 0 0 
95 0.102017 0.0507676 -1.11173e-21 0 0 0 0 0 0 0 
96 0.102022 0.050838 -8.33798e-22 0 0 0 0 0 0 0 
97 0.102014 0.0507678 -9.79382e-22 0 0 0 0 0 0 0 
98 -0.00550109 0.0405416 -9.39677e-22 0 0 0 0 0 0 0 
99 0.102016 0.0507685 -9.66147e-22 0 0 0 0 0 0 0 
100 -0.302441 -0.127948 -1.04556e-21 0 0 0 0 0 0 0 
101 0.102017 0.050768 -7.80858e-22 0 0 0 0 0 0 0 
102 0.102059 0.050754 -9.39677e-22 0 0 0 0 0 0 0 
103 0.0910113 0.0507651 -7.94093e-22 0 0 0 0 0 0 0 
104 -0.132885 0.0109288 -9.26442e-22 0 0 0 0 0 0 0 
105 0.102037 0.0507659 -8.99973e-22 0 0 0 0 0 0 0 
106 0.0692724 0.0499209 -9.52912e-22 0 0 0 0 0 0 0 
107 0.102017 0.0507681 -9.66147e-22 0 0 0 0 0 0 0 
108 -0.305866 -0.341451 -9.52912e-22 0 0 0 0 0 0 0 
109 0.102407 0.0509929 -9.66147e-22 0 0 0 0 0 0 0 
110 0.102017 0.050768 -1.05879e-21 0 0 0 0 0 0 0 
111 0.10202 0.0507687 -8.73503e-22 0 0 0 0 0 0 0 
112 0.0993902 0.0509058 -9.92617e-22 0 0 0 0 0 0 0 
113 0.10199 0.0507202 -1.07203e-21 0 0 0 0 0 0 0 
114 0.0741981 0.0504749 -8.47033e-22 0 0 0 0 0 0 0 
115 -0.15678 0.0116859 -9.39677e-22 0 0 0 0 0 0 0 
116 0.102017 0.0507681 -9.92617e-22 0 0 0 0 0 0 0 
117 -0.344666 -0.385237 -8.60268e-22 0 0 0 0 0 0 0 
118 0.102017 0.050768 -8.20563e-22 0 0 0 0 0 0 0 
119 0.102083 0.0507638 -9.79382e-22 0 0 0 0 0 0 0 
120 0.102046 0.0507694 -1.07203e-21 0 0 0 0 0 0 0 
121 0.102019 0.0507683 -9.52912e-22 0 0 0 0 0 0 0 
122 0.0959942 0.0511884 -8.86738e-22 0 0 0 0 0 0 0 
123 -0.00590753 0.0414336 -1.04556e-21 0 0 0 0 0 0 0 
124 0.102017 0.050768 -1.04556e-21 0 0 0 0 0 0 0 
125 -0.371693 -0.160147 -1.00585e-21 0 0 0 0 0 0 0 
126 0.102248 0.0507537 -9.52912e-22 0 0 0 0 0 0 0 
127 0.102144 0.051969 -1.11173e-21 0 0 0 0 0 0 0 
128 0.102036 0.0507682 -9.66147e-22 0 0 0 0 0 0 0 
129 0.102079 0.0507687 -9.92617e-22 0 0 0 0 0 0 0 
130 0.103339 0.0508325 -9.26442e-22 0 0 0 0 0 0 0 
131 0.0105855 0.0451822 -1.07203e-21 0 0 0 0 0 0 0 
132 0.104322 0.0512343 -8.60268e-22 0 0 0 0 0 0 0 
133 0.102017 0.050768 -9.66147e-22 0 0 0 0 0 0 0 
134 0.0853706 0.0522484 -8.73503e-22 0 0 0 0 0 0 0 
135 -0.402848 -0.372051 -9.66147e-22 0 0 0 0 0 0 0 
136 0.102204 0.0507692 -1.01909e-21 0 0 0 0 0 0 0 
137 0.102017 0.0507677 -7.67624e-22 0 0 0 0 0 0 0 
138 0.102532 0.0507737 -1.07203e-21 0 0 0 0 0 0 0 
139 -0.139922 0.0151301 -9.39677e-22 0 0 0 0 0 0 0 
140 0.102017 0.050768 -1.11173e-21 0 0 0 0 0 0 0 
141 -0.406576 -0.153965 -8.07328e-22 0 0 0 0 0 0 0 
142 0.0683506 0.0486166 -8.60268e-22 0 0 0 0 0 0 0 
143 0.102045 0.0507645 -9.39677e-22 0 0 0 0 0 0 0 
144 0.100966 0.0508708 -1.05879e-21 0 0 0 0 0 0 0 
145 0.102006 0.0507665 -9.13207e-22 0 0 0 0 0 0 0 
146 0.102348 0.0507571 -9.66147e-22 0 0 0 0 0 0 0 
147 -0.0281561 0.0337885 -1.0985e-21 0 0 0 0 0 0 0 
148 0.0916006 0.0511303 -1.05879e-21 0 0 0 0 0 0 0 
149 0.102062 0.0507584 -5.691e-22 0 0 0 0 0 0 0 
150 0.102016 0.050768 -8.33798e-22 0 0 0 0 0 0 0 
151 -0.487856 -0.455102 -1.25731e-21 0 0 0 0 0 0 0 
152 0.102011 0.0507673 -1.33672e-21 0 0 0 0 0 0 0 
153 -0.110382 0.00440663 -5.9557e-22 0 0 0 0 0 0 0 
154 0.102829 0.0507851 -1.0985e-21 0 0 0 0 0 0 0 
155 0.102953 0.0511438 -1.07203e-21 0 0 0 0 0 0 0 
156 0.102014 0.0507679 -9.52912e-22 0 0 0 0 0 0 0 
157 -0.37905 -0.144263 -6.61744e-22 0 0 0 0 0 0 0 
158 0.102043 0.0507635 -1.32349e-21 0 0 0 0 0 0 0 
159 0.102018 0.0507664 -6.08805e-22 0 0 0 0 0 0 0 
160 0.0785838 0.0538176 -9.52912e-22 0 0 0 0 0 0 0 
161 -0.0051978 0.0425318 -9.39677e-22 0 0 0 0 0 0 0 
162 0.0979391 0.0526077 -6.74979e-22 0 0 0 0 0 0 0 
163 0.102016 0.0507679 -9.52912e-22 0 0 0 0 0 0 0 
164 0.102806 0.0507655 -7.27919e-22 0 0 0 0 0 0 0 
165 -0.521588 -0.164752 -1.28378e-21 0 0 0 0 0 0 0 
166 0.102238 0.0507627 -7.54389e-22 0 0 0 0 0 0 0 
167 0.102016 0.0507676 -1.34996e-21 0 0 0 0 0 0 0 
168 -0.183189 -0.00177822 -1.00585e-21 0 0 0 0 0 0 0 
169 0.101129 0.0518165 -1.1382e-21 0 0 0 0 0 0 0 
170 0.102017 0.0507678 -6.74979e-22 0 0 0 0 0 0 0 
171 0.102016 0.050768 -9.79382e-22 0 0 0 0 0 0 0 
172 -0.165771 -0.00701976 -9.92617e-22 0 0 0 0 0 0 0 
173 0.103952 0.0508309 -1.08526e-21 0 0 0 0 0 0 0 
174 -0.566092 -0.595372 -8.60268e-22 0 0 0 0 0 0 0 
175 0.102134 0.0507685 -1.27055e-21 0 0 0 0 0 0 0 
176 0.102025 0.0507675 -9.79382e-22 0 0 0 0 0 0 0 
177 0.102016 0.050768 -8.47033e-22 0 0 0 0 0 0 0 
178 0.0165131 0.0455267 -1.00585e-21 0 0 0 0 0 0 0 
179 0.0895812 0.0525394 -9.66147e-22 0 0 0 0 0 0 0 
180 -0.473691 -0.20134 -1.15144e-21 0 0 0 0 0 0 0 
181 0.10293 0.0508045 -7.27919e-22 0 0 0 0 0 0 0 
182 0.102323 0.0507758 -8.47033e-22 0 0 0 0 0 0 0 
183 0.102014 0.0507679 -1.23084e-21 0 0 0 0 0 0 0 
184 0.102015 0.0507673 -8.07328e-22 0 0 0 0 0 0 0 
185 -0.600675 -0.207966 -1.16467e-21 0 0 0 0 0 0 0 
186 0.0963614 0.0516483 -9.66147e-22 0 0 0 0 0 0 0 
187 0.102011 0.0507676 -9.66147e-22 0 0 0 0 0 0 0 
188 -0.0241402 0.0433676 -7.14684e-22 0 0 0 0 0 0 0 
189 0.102095 0.0507723 -8.33798e-22 0 0 0 0 0 0 0 
190 -0.232433 0.00224842 -7.27919e-22 0 0 0 0 0 0 0 
191 0.102997 0.0508704 -1.0985e-21 0 0 0 0 0 0 0 
192 0.102116 0.0510182 -1.16467e-21 0 0 0 0 0 0 0 
193 0.102016 0.050768 -8.33798e-22 0 0 0 0 0 0 0 
194 -0.654326 -0.648024 -8.47033e-22 0 0 0 0 0 0 0 
195 0.0639669 0.0505781 -8.60268e-22 0 0 0 0 0 0 0 
196 0.102098 0.0507689 -1.11173e-21 0 0 0 0 0 0 0 
197 0.102385 0.0507106 -1.0985e-21 0 0 0 0 0 0 0 
198 0.0693292 0.0488724 -1.15144e-21 0 0 0 0 0 0 0 
199 0.102014 0.0507679 -9.79382e-22 0 0 0 0 0 0 0 
200 0.0930696 0.0500646 -7.54389e-22 0 0 0 0 0 0 0 
201 -0.264715 -0.00880371 -1.03232e-21 0 0 0 0 0 0 0 
202 0.102016 0.050768 -1.20437e-21 0 0 0 0 0 0 0 
203 -0.60759 -0.233385 -9.66147e-22 0 0 0 0 0 0 0 
204 0.102025 0.0507671 -9.52912e-22 0 0 0 0 0 0 0 
205 0.0275239 0.0455733 -1.11173e-21 0 0 0 0 0 0 0 
206 0.102016 0.0507678 -9.66147e-22 0 0 0 0 0 0 0 
207 0.102661 0.0507404 -8.20563e-22 0 0 0 0 0 0 0 
208 -0.052619 0.0423231 -1.1382e-21 0 0 0 0 0 0 0 
209 0.102416 0.0509764 -1.07203e-21 0 0 0 0 0 0 0 
210 0.0824738 0.0537879 -8.47033e-22 0 0 0 0 0 0 0 
211 0.102052 0.0507675 -9.52912e-22 0 0 0 0 0 0 0 
212 -0.751183 -0.59622 -8.33798e-22 0 0 0 0 0 0 0 
213 0.102016 0.050768 -9.66147e-22 0 0 0 0 0 0 0 
214 0.0158066 0.0542793 -1.11173e-21 0 0 0 0 0 0 0 
215 0.103234 0.0527245 -1.04556e-21 0 0 0 0 0 0 0 
216 0.102031 0.0507678 -9.66147e-22 0 0 0 0 0 0 0 
217 0.10255 0.0507968 -1.0985e-21 0 0 0 0 0 0 0 
218 0.102157 0.0507688 -1.01909e-21 0 0 0 0 0 0 0 
219 0.102021 0.0507678 -9.66147e-22 0 0 0 0 0 0 0 
220 -0.180192 0.0178524 -8.60268e-22 0 0 0 0 0 0 0 
221 0.102016 0.0507681 -9.92617e-22 0 0 0 0 0 0 0 
222 0.0994953 0.0515368 -9.39677e-22 0 0 0 0 0 0 0 
223 -0.599201 -0.202394 -1.08526e-21 0 0 0 0 0 0 0 
224 0.102916 0.0509373 -9.92617e-22 0 0 0 0 0 0 0 
225 -0.00201352 0.046707 -1.1382e-21 0 0 0 0 0 0 0 
226 0.10216 0.0507718 -8.60268e-22 0 0 0 0 0 0 0 
227 0.102048 0.0507653 -9.66147e-22 0 0 0 0 0 0 0 
228 0.0820832 0.0517574 -7.67624e-22 0 0 0 0 0 0 0 
229 -0.793546 -0.644936 -8.33798e-22 0 0 0 0 0 0 0 
230 0.102015 0.0507681 -8.47033e-22 0 0 0 0 0 0 0 
231 0.102421 0.0507975 -7.14684e-22 0 0 0 0 0 0 0 
232 -0.0492841 0.04044 -8.86738e-22 0 0 0 0 0 0 0 
233 0.0919481 0.05125 -9.52912e-22 0 0 0 0 0 0 0 
234 0.102062 0.0507595 -9.39677e-22 0 0 0 0 0 0 0 
235 0.10275 0.0509034 -9.66147e-22 0 0 0 0 0 0 0 
236 0.102011 0.0507681 -9.79382e-22 0 0 0 0 0 0 0 
237 -0.749862 -0.269295 -9.39677e-22 0 0 0 0 0 0 0 
238 0.0580309 0.0500665 -9.66147e-22 0 0 0 0 0 0 0 
239 0.102439 0.0512062 -1.25731e-21 0 0 0 0 0 0 0 
240 0.102006 0.0507659 -1.20437e-21 0 0 0 0 0 0 0 
241 -0.284229 -0.00636839 -8.20563e-22 0 0 0 0 0 0 0 
242 0.102246 0.0507413 -1.17791e-21 0 0 0 0 0 0 0 
243 0.0796117 0.0523437 -9.92617e-22 0 0 0 0 0 0 0 
244 0.102782 0.0507773 -7.27919e-22 0 0 0 0 0 0 0 
245 0.102596 0.05209 -5.55865e-22 0 0 0 0 0 0 0 
246 0.102012 0.050768 -1.16467e-21 0 0 0 0 0 0 0 
247 -0.86341 -0.796691 -1.20437e-21 0 0 0 0 0 0 0 
248 -0.228968 0.00880351 -9.52912e-22 0 0 0 0 0 0 0 
249 -0.00407833 0.0469656 -9.79382e-22 0 0 0 0 0 0 0 
250 0.101998 0.0507633 -5.16161e-22 0 0 0 0 0 0 0 
251 0.102049 0.0507459 -4.49986e-22 0 0 0 0 0 0 0 
252 0.106032 0.0511844 -7.67624e-22 0 0 0 0 0 0 0 
253 0.104809 0.0511496 -1.17791e-21 0 0 0 0 0 0 0 
254 0.102005 0.0507668 -8.86738e-22 0 0 0 0 0 0 0 
255 -0.716892 -0.271056 -9.79382e-22 0 0 0 0 0 0 0 
256 0.0451222 0.0525014 -9.79382e-22 0 0 0 0 0 0 0 
257 0.102005 0.0507661 -9.79382e-22 0 0 0 0 0 0 0 
258 0.102288 0.0507203 -1.54848e-21 0 0 0 0 0 0 0 
259 -0.893133 -0.371309 -9.66147e-22 0 0 0 0 0 0 0 
260 0.0990046 0.0524721 -8.60268e-22 0 0 0 0 0 0 0 
261 0.103034 0.050761 -9.52912e-22 0 0 0 0 0 0 0 
262 0.10201 0.0507675 -9.79382e-22 0 0 0 0 0 0 0 
263 -0.871205 -0.973349 -9.66147e-22 0 0 0 0 0 0 0 
264 0.101999 0.0507629 -9.52912e-22 0 0 0 0 0 0 0 
265 -0.48032 -0.0540162 -1.25731e-21 0 0 0 0 0 0 0 
266 0.102056 0.0507521 -1.00585e-21 0 0 0 0 0 0 0 
267 -0.126002 0.0401463 -7.01449e-22 0 0 0 0 0 0 0 
268 0.103799 0.0508516 -9.66147e-22 0 0 0 0 0 0 0 
269 0.102004 0.0507662 -9.79382e-22 0 0 0 0 0 0 0 
270 0.0973081 0.0517154 -1.36319e-21 0 0 0 0 0 0 0 
271 -0.786512 -0.369925 -3.17637e-22 0 0 0 0 0 0 0 
272 0.102163 0.0507582 -9.66147e-22 0 0 0 0 0 0 0 
273 0.105638 0.0512415 -9.66147e-22 0 0 0 0 0 0 0 
274 0.102611 0.0507532 -9.66147e-22 0 0 0 0 0 0 0 
275 0.0248097 0.0493919 -1.03232e-21 0 0 0 0 0 0 0 
276 0.102011 0.0507674 -5.9557e-22 0 0 0 0 0 0 0 
277 -0.885137 -0.313059 -1.57495e-21 0 0 0 0 0 0 0 
278 0.102646 0.050774 -9.66147e-22 0 0 0 0 0 0 0 
279 -0.0419442 0.0400162 -9.66147e-22 0 0 0 0 0 0 0 
280 0.102068 0.0507662 -8.47033e-22 0 0 0 0 0 0 0 
281 0.102015 0.0507664 -9.13207e-22 0 0 0 0 0 0 0 
282 -0.311485 -0.00960981 -9.52912e-22 0 0 0 0 0 0 0 
283 0.106842 0.05166 -9.79382e-22 0 0 0 0 0 0 0 
284 0.102013 0.0507676 -1.4029e-21 0 0 0 0 0 0 0 
285 -0.926215 -0.898475 -5.16161e-22 0 0 0 0 0 0 0 
286 0.104002 0.050923 -9.92617e-22 0 0 0 0 0 0 0 
287 0.102274 0.0507717 -9.79382e-22 0 0 0 0 0 0 0 
288 0.077247 0.0535196 -9.52912e-22 0 0 0 0 0 0 0 
289 0.1084 0.0533863 -9.66147e-22 0 0 0 0 0 0 0 
290 -0.315667 -0.00908707 -9.66147e-22 0 0 0 0 0 0 0 
291 0.103886 0.0508806 -9.39677e-22 0 0 0 0 0 0 0 
292 0.102585 0.0507857 -9.66147e-22 0 0 0 0 0 0 0 
293 0.102025 0.0507643 -1.04556e-21 0 0 0 0 0 0 0 
294 -0.827296 -0.310945 -1.49554e-21 0 0 0 0 0 0 0 
295 0.102009 0.050766 -8.47033e-22 0 0 0 0 0 0 0 
296 -0.0422429 0.0416507 -9.79382e-22 0 0 0 0 0 0 0 
297 0.102184 0.0507691 -1.17791e-21 0 0 0 0 0 0 0 
298 0.106857 0.0512793 -9.66147e-22 0 0 0 0 0 0 0 
299 0.110216 0.0524244 -9.79382e-22 0 0 0 0 0 0 0 
300 -1.01325 -0.786637 -7.54389e-22 0 0 0 0 0 0 0 
301 0.102005 0.0507668 -1.21761e-21 0 0 0 0 0 0 0 
302 0.102406 0.0507699 -5.16161e-22 0 0 0 0 0 0 0 
303 0.00332783 0.0473437 -1.28378e-21 0 0 0 0 0 0 0 
304 0.104131 0.0508985 -7.41154e-22 0 0 0 0 0 0 0 
305 0.0979766 0.0538851 -5.29396e-22 0 0 0 0 0 0 0 
306 -0.822228 -0.288111 -9.79382e-22 0 0 0 0 0 0 0 
307 -0.251968 0.00274652 -3.97047e-22 0 0 0 0 0 0 0 
308 0.101989 0.0507652 -7.14684e-22 0 0 0 0 0 0 0 
309 0.10205 0.0507626 -6.74979e-22 0 0 0 0 0 0 0 
310 0.105948 0.0512607 -1.36319e-21 0 0 0 0 0 0 0 
311 0.10665 0.0555507 -1.1382e-21 0 0 0 0 0 0 0 
312 -0.999339 -0.847703 -1.20437e-21 0 0 0 0 0 0 0 
313 0.109208 0.0524939 -1.16467e-21 0 0 0 0 0 0 0 
314 0.102002 0.0507663 -1.20437e-21 0 0 0 0 0 0 0 
315 -0.14656 0.0190112 -1.42937e-21 0 0 0 0 0 0 0 
316 0.102153 0.0507664 -1.36319e-21 0 0 0 0 0 0 0 
317 0.102967 0.0508342 -9.52912e-22 0 0 0 0 0 0 0 
318 0.0478982 0.0563638 -8.86738e-22 0 0 0 0 0 0 0 
319 -0.642806 -0.246882 -4.23516e-22 0 0 0 0 0 0 0 
320 0.102015 0.0507639 -5.82335e-22 0 0 0 0 0 0 0 
321 0.104036 0.0511712 -7.67624e-22 0 0 0 0 0 0 0 
322 0.102221 0.0507718 -7.14684e-22 0 0 0 0 0 0 0 
323 0.10289 0.0508194 -1.01909e-21 0 0 0 0 0 0 0 
324 -0.809389 -0.272906 -1.50878e-21 0 0 0 0 0 0 0 
325 0.0778974 0.0539818 -6.61744e-22 0 0 0 0 0 0 0 
326 0.103368 0.051666 -1.20437e-21 0 0 0 0 0 0 0 
327 0.101981 0.0507645 -9.66147e-22 0 0 0 0 0 0 0 
328 -0.956152 -0.852521 -5.02926e-22 0 0 0 0 0 0 0 
329 0.101997 0.0507618 -1.48231e-21 0 0 0 0 0 0 0 
330 0.102001 0.050767 -9.66147e-22 0 0 0 0 0 0 0 
331 -0.240724 0.0305036 -6.61744e-22 0 0 0 0 0 0 0 
332 9.37e-05 0.0540532 -1.25731e-21 0 0 0 0 0 0 0 
333 0.104095 0.0508392 -8.33798e-22 0 0 0 0 0 0 0 
334 0.106389 0.0511261 -7.27919e-22 0 0 0 0 0 0 0 
335 0.102173 0.0507677 -2.38228e-22 0 0 0 0 0 0 0 
336 0.102835 0.0507839 -1.54848e-21 0 0 0 0 0 0 0 
337 -0.77807 -0.280585 -1.24408e-21 0 0 0 0 0 0 0 
338 0.0716943 0.0525687 -9.79382e-22 0 0 0 0 0 0 0 
339 -0.295629 0.0108196 -1.12497e-21 0 0 0 0 0 0 0 
340 0.102009 0.0507677 -9.66147e-22 0 0 0 0 0 0 0 
341 0.104082 0.0518322 -9.66147e-22 0 0 0 0 0 0 0 
342 0.102035 0.0507672 -8.86738e-22 0 0 0 0 0 0 0 
343 -0.0311046 0.046896 -9.66147e-22 0 0 0 0 0 0 0 
344 -0.95005 -0.735312 -9.66147e-22 0 0 0 0 0 0 0 
345 0.103077 0.050811 -9.39677e-22 0 0 0 0 0 0 0 
346 0.102011 0.0507679 -9.66147e-22 0 0 0 0 0 0 0 
347 0.102025 0.0507665 -1.16467e-21 0 0 0 0 0 0 0 
348 0.108019 0.0517365 -9.92617e-22 0 0 0 0 0 0 0 
349 0.102117 0.0507633 -9.92617e-22 0 0 0 0 0 0 0 
350 0.0458889 0.0554402 -1.24408e-21 0 0 0 0 0 0 0 
351 0.104835 0.0509178 -3.83812e-22 0 0 0 0 0 0 0 
352 0.10201 0.0507676 -7.41154e-22 0 0 0 0 0 0 0 
353 -0.631759 -0.200744 -9.79382e-22 0 0 0 0 0 0 0 
354 0.108733 0.0537753 -1.24408e-21 0 0 0 0 0 0 0 
355 -0.0938439 0.0485918 -4.89691e-22 0 0 0 0 0 0 0 
356 0.102196 0.050737 -9.66147e-22 0 0 0 0 0 0 0 
357 0.102006 0.0507644 -1.62789e-21 0 0 0 0 0 0 0 
358 0.103267 0.0507646 -1.52201e-21 0 0 0 0 0 0 0 
359 -0.898758 -0.664621 -1.19114e-21 0 0 0 0 0 0 0 
360 0.102034 0.0507538 -9.66147e-22 0 0 0 0 0 0 0 
361 0.111965 0.0526835 -7.94093e-22 0 0 0 0 0 0 0 
362 0.06243 0.061233 -1.00585e-21 0 0 0 0 0 0 0 
363 0.102004 0.0507671 -6.74979e-22 0 0 0 0 0 0 0 
364 0.106011 0.0511136 -6.74979e-22 0 0 0 0 0 0 0 
365 0.115407 0.0561721 -9.79382e-22 0 0 0 0 0 0 0 
366 0.102001 0.0507616 -9.66147e-22 0 0 0 0 0 0 0 
367 -0.850419 -0.299 -8.07328e-22 0 0 0 0 0 0 0 
368 0.101989 0.0507662 -9.79382e-22 0 0 0 0 0 0 0 
369 -0.0136375 0.0548537 -1.46907e-21 0 0 0 0 0 0 0 
370 -0.279937 0.00942895 -9.52912e-22 0 0 0 0 0 0 0 
371 0.103314 0.050859 -9.79382e-22 0 0 0 0 0 0 0 
372 0.102169 0.0507684 -9.79382e-22 0 0 0 0 0 0 0 
373 0.108903 0.0541456 -7.41154e-22 0 0 0 0 0 0 0 
374 0.102005 0.0507674 -7.27919e-22 0 0 0 0 0 0 0 
375 -0.955973 -0.931894 -7.67624e-22 0 0 0 0 0 0 0 
376 0.0840168 0.0574591 -7.80858e-22 0 0 0 0 0 0 0 
377 0.104161 0.0510052 -7.94093e-22 0 0 0 0 0 0 0 
378 0.102071 0.0507687 -9.79382e-22 0 0 0 0 0 0 0 
379 0.105413 0.0514499 -1.1382e-21 0 0 0 0 0 0 0 
380 -0.238265 0.00935141 -9.66147e-22 0 0 0 0 0 0 0 
381 0.102009 0.0507676 -1.4029e-21 0 0 0 0 0 0 0 
382 0.102007 0.0507672 -9.66147e-22 0 0 0 0 0 0 0 
383 0.00185748 0.0510339 -9.79382e-22 0 0 0 0 0 0 0 
384 -0.729917 -0.28857 -9.52912e-22 0 0 0 0 0 0 0 
385 0.102239 0.0507775 -6.2204e-22 0 0 0 0 0 0 0 
386 0.102905 0.0508187 -1.31025e-21 0 0 0 0 0 0 0 
387 0.0976525 0.0508468 -9.52912e-22 0 0 0 0 0 0 0 
388 0.0690862 0.0530941 -9.52912e-22 0 0 0 0 0 0 0 
389 0.102173 0.0507688 -1.53525e-21 0 0 0 0 0 0 0 
390 0.103525 0.0508336 -9.66147e-22 0 0 0 0 0 0 0 
391 0.102013 0.0507674 -1.05879e-21 0 0 0 0 0 0 0 
392 0.102015 0.050768 -9.92617e-22 0 0 0 0 0 0 0 
393 -0.936257 -0.676837 -9.79382e-22 0 0 0 0 0 0 0 
394 0.102031 0.0507648 -4.76456e-22 0 0 0 0 0 0 0 
395 0.102543 0.0507728 -3.57342e-22 0 0 0 0 0 0 0 
396 0.10854 0.0530016 -9.66147e-22 0 0 0 0 0 0 0 
397 0.105926 0.0512322 -9.52912e-22 0 0 0 0 0 0 0 
398 0.102014 0.0507679 -8.20563e-22 0 0 0 0 0 0 0 
399 0.0406996 0.0596319 -9.52912e-22 0 0 0 0 0 0 0 
400 -0.720884 -0.236009 -9.39677e-22 0 0 0 0 0 0 0 
401 0.10237 0.0507518 -1.31025e-21 0 0 0 0 0 0 0 
402 0.102032 0.0507518 -1.31025e-21 0 0 0 0 0 0 0 
403 -0.174998 0.0249512 -9.66147e-22 0 0 0 0 0 0 0 
404 0.109744 0.0591681 -9.39677e-22 0 0 0 0 0 0 0 
405 0.102 0.0507666 -9.66147e-22 0 0 0 0 0 0 0 
406 0.106813 0.0513594 -6.88214e-22 0 0 0 0 0 0 0 
407 0.103876 0.050876 -9.66147e-22 0 0 0 0 0 0 0 
408 0.102027 0.050763 -9.66147e-22 0 0 0 0 0 0 0 
409 0.110462 0.0540166 -1.20437e-21 0 0 0 0 0 0 0 
410 -0.891699 -0.770551 -1.41613e-21 0 0 0 0 0 0 0 
411 0.101987 0.0507645 -4.49986e-22 0 0 0 0 0 0 0 
412 0.10201 0.0507675 -9.52912e-22 0 0 0 0 0 0 0 
413 -0.161718 0.00216649 -3.30872e-22 0 0 0 0 0 0 0 
414 0.102003 0.0507666 -2.48816e-21 0 0 0 0 0 0 0 
415 0.103449 0.0508813 -9.66147e-22 0 0 0 0 0 0 0 
416 -0.609642 -0.227636 -5.691e-22 0 0 0 0 0 0 0 
417 0.0970106 0.0523557 -9.52912e-22 0 0 0 0 0 0 0 
418 0.102341 0.0507856 -9.66147e-22 0 0 0 0 0 0 0 
419 0.0205105 0.0435081 -1.99847e-21 0 0 0 0 0 0 0 
420 0.102013 0.0507674 -7.27919e-22 0 0 0 0 0 0 0 
421 0.10575 0.0511972 -9.66147e-22 0 0 0 0 0 0 0 
422 -0.798962 -0.275481 -6.61744e-22 0 0 0 0 0 0 0 
423 0.108178 0.0520827 -9.79382e-22 0 0 0 0 0 0 0 
424 0.10218 0.050774 -1.58819e-21 0 0 0 0 0 0 0 
425 0.102026 0.0507673 -1.27055e-21 0 0 0 0 0 0 0 
426 -0.0340133 0.0396721 -2.64698e-23 0 0 0 0 0 0 0 
427 -0.273569 -0.0051566 -1.1382e-21 0 0 0 0 0 0 0 
428 -0.847172 -0.801662 -9.52912e-22 0 0 0 0 0 0 0 
429 0.102013 0.0507678 -9.66147e-22 0 0 0 0 0 0 0 
430 0.103568 0.0508732 -9.66147e-22 0 0 0 0 0 0 0 
431 0.102507 0.0507907 -1.03232e-21 0 0 0 0 0 0 0 
432 0.107358 0.0529046 -5.55865e-22 0 0 0 0 0 0 0 
433 0.0772564 0.0523818 -4.89691e-22 0 0 0 0 0 0 0 
434 0.102016 0.050767 -3.17637e-22 0 0 0 0 0 0 0 
435 -0.255824 -0.00170491 -9.66147e-22 0 0 0 0 0 0 0 
436 0.103998 0.0509276 -9.66147e-22 0 0 0 0 0 0 0 
437 0.102295 0.050774 2.77933e-22 0 0 0 0 0 0 0 
438 -0.685859 -0.269912 -8.33798e-22 0 0 0 0 0 0 0 
439 0.102011 0.0507675 -6.88214e-22 0 0 0 0 0 0 0 
440 0.105887 0.0515844 -2.05141e-21 0 0 0 0 0 0 0 
441 0.10208 0.0507678 -9.66147e-22 0 0 0 0 0 0 0 
442 -0.0218613 0.0415878 -2.06464e-21 0 0 0 0 0 0 0 
443 0.102824 0.0508007 -2.10435e-21 0 0 0 0 0 0 0 
444 0.103003 0.0519052 -7.27919e-22 0 0 0 0 0 0 0 
445 -0.806519 -0.652515 -1.41613e-21 0 0 0 0 0 0 0 
446 0.102014 0.0507678 -1.41613e-21 0 0 0 0 0 0 0 
447 0.00584315 0.0444275 -7.01449e-22 0 0 0 0 0 0 0 
448 0.102491 0.0507957 -4.76456e-22 0 0 0 0 0 0 0 
449 0.0919184 0.0526624 -9.79382e-22 0 0 0 0 0 0 0 
450 0.102129 0.0507721 -3.30872e-22 0 0 0 0 0 0 0 
451 0.104076 0.0511386 -2.51463e-22 0 0 0 0 0 0 0 
452 0.103132 0.0508995 -1.62789e-21 0 0 0 0 0 0 0 
453 0.102016 0.0507677 1.32349e-23 0 0 0 0 0 0 0 
454 -0.609928 -0.218994 -1.28378e-21 0 0 0 0 0 0 0 
455 0.102031 0.0507675 -1.91906e-21 0 0 0 0 0 0 0 
456 -0.18891 0.00808037 -6.35275e-22 0 0 0 0 0 0 0 
457 0.101691 0.0528697 -4.76456e-22 0 0 0 0 0 0 0 
458 0.104589 0.0515748 -1.7073e-21 0 0 0 0 0 0 0 
459 0.00365129 0.0494971 -9.52912e-22 0 0 0 0 0 0 0 
460 0.102283 0.0507847 2.11758e-22 0 0 0 0 0 0 0 
461 0.102024 0.0507661 4.63221e-22 0 0 0 0 0 0 0 
462 -0.72281 -0.646674 -9.26442e-23 0 0 0 0 0 0 0 
463 0.102016 0.0507679 -1.42937e-21 0 0 0 0 0 0 0 
464 0.0787854 0.052806 -7.67624e-22 0 0 0 0 0 0 0 
465 0.102059 0.050767 -9.66147e-22 0 0 0 0 0 0 0 
466 0.102233 0.0507855 -1.50878e-21 0 0 0 0 0 0 0 
467 0.102013 0.0507673 -1.46907e-21 0 0 0 0 0 0 0 
468 0.101934 0.0508784 -3.70577e-22 0 0 0 0 0 0 0 
469 -0.0666889 0.0350593 -1.4426e-21 0 0 0 0 0 0 0 
470 0.102025 0.0507674 -1.72054e-22 0 0 0 0 0 0 0 
471 0.0267823 0.0442 -1.93229e-21 0 0 0 0 0 0 0 
472 0.102015 0.050768 -9.52912e-22 0 0 0 0 0 0 0 
473 -0.640184 -0.259961 -1.93229e-21 0 0 0 0 0 0 0 
474 0.102014 0.0507679 -9.52912e-22 0 0 0 0 0 0 0 
475 0.102165 0.0507718 -9.92617e-22 0 0 0 0 0 0 0 
476 -0.281967 -0.0248362 -3.97047e-23 0 0 0 0 0 0 0 
477 0.102036 0.0507681 -9.13207e-22 0 0 0 0 0 0 0 
478 0.0959545 0.0504325 -9.66147e-22 0 0 0 0 0 0 0 
479 0.0744912 0.0493203 -9.66147e-22 0 0 0 0 0 0 0 
480 -0.644274 -0.661719 -6.61744e-23 0 0 0 0 0 0 0 
481 0.102059 0.0507707 -2.2367e-21 0 0 0 0 0 0 0 
482 0.102016 0.050768 -1.42937e-21 0 0 0 0 0 0 0 
483 0.102311 0.0507872 -1.60142e-21 0 0 0 0 0 0 0 
484 0.101478 0.0507908 -1.32349e-22 0 0 0 0 0 0 0 
485 0.102016 0.0507678 -9.79382e-22 0 0 0 0 0 0 0 
486 0.0666832 0.0515949 -2.51463e-22 0 0 0 0 0 0 0 
487 -0.197771 -0.00404125 -1.29702e-21 0 0 0 0 0 0 0 
488 0.102026 0.0507688 5.29396e-23 0 0 0 0 0 0 0 
489 0.10222 0.0507767 2.51463e-22 0 0 0 0 0 0 0 
490 -0.00997132 0.0467137 -5.9557e-22 0 0 0 0 0 0 0 
491 -0.49116 -0.211757 -1.79995e-21 0 0 0 0 0 0 0 
492 0.102017 0.050768 2.91168e-22 0 0 0 0 0 0 0 
493 0.0940593 0.0518135 -1.68083e-21 0 0 0 0 0 0 0 
494 0.102998 0.0512056 -1.52201e-21 0 0 0 0 0 0 0 
495 0.102235 0.0507738 -1.41613e-21 0 0 0 0 0 0 0 
496 -0.547209 -0.205626 -1.76024e-21 0 0 0 0 0 0 0 
497 0.102039 0.0507686 -1.7073e-21 0 0 0 0 0 0 0 
498 0.102016 0.0507678 -1.4426e-21 0 0 0 0 0 0 0 
499 -0.00348109 0.0454891 -2.31611e-21 0 0 0 0 0 0 0 
500 0.07392 0.051872 -9.66147e-22 0 0 0 0 0 0 0 
501 -0.546063 -0.59516 -5.16161e-22 0 0 0 0 0 0 0 
502 0.104039 0.0509881 -3.97047e-22 0 0 0 0 0 0 0 
503 -0.196681 -0.00960944 -1.58819e-22 0 0 0 0 0 0 0 
504 0.102019 0.0507675 -2.11758e-21 0 0 0 0 0 0 0 
505 0.102016 0.0507679 -1.41613e-21 0 0 0 0 0 0 0 
506 0.102845 0.050812 -1.54848e-21 0 0 0 0 0 0 0 
507 0.102015 0.0507666 5.55865e-22 0 0 0 0 0 0 0 
508 -0.126074 -0.00137513 -9.66147e-22 0 0 0 0 0 0 0 
509 0.0961562 0.0525175 -9.52912e-22 0 0 0 0 0 0 0 
510 0.103723 0.0514588 -7.80858e-22 0 0 0 0 0 0 0 
511 -0.371129 -0.161442 -9.66147e-22 0 0 0 0 0 0 0 
512 0.102015 0.0507676 5.691e-22 0 0 0 0 0 0 0 
513 0.102218 0.0507722 2.38228e-22 0 0 0 0 0 0 0 
514 0.102018 0.0507639 -1.08526e-21 0 0 0 0 0 0 0 
515 -0.00758263 0.0429297 -1.60142e-21 0 0 0 0 0 0 0 
516 0.102045 0.0507616 -9.52912e-22 0 0 0 0 0 0 0 
517 0.0760779 0.0535621 -1.74701e-21 0 0 0 0 0 0 0 
518 0.102013 0.0507678 -1.4426e-21 0 0 0 0 0 0 0 
519 -0.407502 -0.143508 -9.66147e-22 0 0 0 0 0 0 0 
520 0.102655 0.0509211 -1.54848e-21 0 0 0 0 0 0 0 
521 0.10239 0.0507906 -1.28378e-21 0 0 0 0 0 0 0 
522 0.102008 0.0507665 -1.86612e-21 0 0 0 0 0 0 0 
523 -0.467815 -0.460194 -1.52201e-21 0 0 0 0 0 0 0 
524 -0.155417 0.00619816 5.55865e-22 0 0 0 0 0 0 0 
525 0.102016 0.050768 -1.50878e-21 0 0 0 0 0 0 0 
526 0.102026 0.0507647 -1.53525e-21 0 0 0 0 0 0 0 
527 0.0902234 0.0511028 -1.45584e-22 0 0 0 0 0 0 0 
528 0.102004 0.0507667 -1.87935e-21 0 0 0 0 0 0 0 
529 0.10223 0.0507773 -1.93229e-21 0 0 0 0 0 0 0 
530 -0.0366005 0.0345044 -1.98523e-21 0 0 0 0 0 0 0 
531 0.100811 0.0508802 -2.91168e-22 0 0 0 0 0 0 0 
532 0.102057 0.0507694 -1.19114e-22 0 0 0 0 0 0 0 
533 -0.38882 -0.152437 -3.57342e-22 0 0 0 0 0 0 0 
534 0.0653446 0.0487078 -1.7073e-21 0 0 0 0 0 0 0 
535 0.102019 0.050768 -2.24993e-22 0 0 0 0 0 0 0 
536 -0.129342 0.0169247 -1.52201e-21 0 0 0 0 0 0 0 
537 0.102023 0.0507682 -3.44107e-22 0 0 0 0 0 0 0 
538 0.102663 0.0508202 -8.33798e-22 0 0 0 0 0 0 0 
539 0.102317 0.0507879 -9.66147e-22 0 0 0 0 0 0 0 
540 -0.398496 -0.381949 -9.66147e-22 0 0 0 0 0 0 0 
541 0.0873962 0.0525422 -5.55865e-22 0 0 0 0 0 0 0 
542 0.0169925 0.0461585 -1.25731e-21 0 0 0 0 0 0 0 
543 0.104547 0.0512363 -1.29702e-21 0 0 0 0 0 0 0 
544 0.102017 0.050768 -9.66147e-22 0 0 0 0 0 0 0 
545 0.103627 0.0509496 -6.74979e-22 0 0 0 0 0 0 0 
546 0.102132 0.0507745 -2.24993e-22 0 0 0 0 0 0 0 
547 0.102057 0.05077 -3.70577e-22 0 0 0 0 0 0 0 
548 0.103072 0.0520506 -1.34996e-21 0 0 0 0 0 0 0 
549 0.102447 0.0508026 -9.66147e-22 0 0 0 0 0 0 0 
550 -0.353138 -0.158228 -1.7073e-21 0 0 0 0 0 0 0 
551 0.00197801 0.0422098 1.72054e-22 0 0 0 0 0 0 0 
552 0.102016 0.050768 -5.9557e-22 0 0 0 0 0 0 0 
553 0.0966591 0.0512272 -9.52912e-22 0 0 0 0 0 0 0 
554 0.102077 0.0507703 -2.14405e-21 0 0 0 0 0 0 0 
555 0.102023 0.050768 -2.13082e-21 0 0 0 0 0 0 0 
556 0.102158 0.0507756 1.72054e-22 0 0 0 0 0 0 0 
557 -0.327828 -0.386498 -9.52912e-22 0 0 0 0 0 0 0 
558 -0.138295 0.0134643 -5.29396e-23 0 0 0 0 0 0 0 
559 0.0763325 0.0506326 -9.52912e-22 0 0 0 0 0 0 0 
560 0.102016 0.050768 -9.66147e-22 0 0 0 0 0 0 0 
561 0.102017 0.0507679 -5.29396e-23 0 0 0 0 0 0 0 
562 0.102239 0.0507904 -9.52912e-22 0 0 0 0 0 0 0 
563 0.0995787 0.0509135 -6.35275e-22 0 0 0 0 0 0 0 
564 0.102025 0.0507678 4.10282e-22 0 0 0 0 0 0 0 
565 -0.292869 -0.343462 -9.52912e-22 0 0 0 0 0 0 0 
566 0.102139 0.050833 -9.66147e-22 0 0 0 0 0 0 0 
567 0.102016 0.050768 -9.66147e-22 0 0 0 0 0 0 0 
568 -0.122415 0.0117582 -1.49554e-21 0 0 0 0 0 0 0 
569 0.102057 0.0507695 -1.32349e-21 0 0 0 0 0 0 0 
570 0.102016 0.0507679 -1.86612e-21 0 0 0 0 0 0 0 
571 0.0708947 0.0500042 -2.0117e-21 0 0 0 0 0 0 0 
572 0.10212 0.0507745 -1.86612e-21 0 0 0 0 0 0 0 
573 0.0915575 0.0507891 -1.58819e-22 0 0 0 0 0 0 0 
574 -0.278042 -0.127286 -5.55865e-22 0 0 0 0 0 0 0 
575 0.102014 0.0507676 -2.11758e-21 0 0 0 0 0 0 0 
576 0.102016 0.050768 -1.38966e-21 0 0 0 0 0 0 0 
577 0.102014 0.0507678 -9.66147e-22 0 0 0 0 0 0 0 
578 -0.000559135 0.0408574 -9.66147e-22 0 0 0 0 0 0 0 
579 0.102013 0.0508736 -9.79382e-22 0 0 0 0 0 0 0 
580 0.102017 0.0507675 -1.45584e-21 0 0 0 0 0 0 0 
581 0.0962176 0.0508713 -9.66147e-22 0 0 0 0 0 0 0 
582 0.102016 0.050768 -1.98523e-22 0 0 0 0 0 0 0 
583 0.102169 0.0507827 -7.54389e-22 0 0 0 0 0 0 0 
584 -0.247182 -0.257508 -9.79382e-22 0 0 0 0 0 0 0 