VARIABLES = "Cell" "Mode 0" "Mode 1" "Mode 2" "Mode 3" "Mode 4" "Mode 5" "Mode 6" "Mode 7" "Mode 8" "Mode 9" 
ZONE T = Iteration83
0 0.552225 0.552225 0.552225 0.552225 0.552225 0.552225 0.552225 0.552225 0.552225 0.552225 
1 0.552893 0.552893 0.552893 0.552893 0.552893 0.552893 0.552893 0.552893 0.552893 0.552893 
2 0.546656 0.546656 0.546656 0.546656 0.546656 0.546656 0.546656 0.546656 0.546656 0.546656 
3 0.54776 0.54776 0.54776 0.54776 0.54776 0.54776 0.54776 0.54776 0.54776 0.54776 
4 0.534517 0.534517 0.534517 0.534517 0.534517 0.534517 0.534517 0.534517 0.534517 0.534517 
5 0.544067 0.544067 0.544067 0.544067 0.544067 0.544067 0.544067 0.544067 0.544067 0.544067 
6 0.532117 0.532117 0.532117 0.532117 0.532117 0.532117 0.532117 0.532117 0.532117 0.532117 
7 0.527803 0.527803 0.527803 0.527803 0.527803 0.527803 0.527803 0.527803 0.527803 0.527803 
8 0.54233 0.54233 0.54233 0.54233 0.54233 0.54233 0.54233 0.54233 0.542329 0.542329 
9 0.542899 0.542899 0.542899 0.542899 0.542899 0.542899 0.542899 0.542899 0.542899 0.542899 
10 0.522146 0.522146 0.522146 0.522146 0.522146 0.522146 0.522146 0.522146 0.522146 0.522146 
11 0.524794 0.524794 0.524794 0.524794 0.524794 0.524794 0.524794 0.524794 0.524794 0.524794 
12 0.507027 0.507027 0.507027 0.507027 0.507027 0.507027 0.507027 0.507027 0.507027 0.507027 
13 0.509228 0.509228 0.509228 0.509228 0.509228 0.509228 0.509228 0.509228 0.509228 0.509228 
14 0.520104 0.520104 0.520104 0.520104 0.520104 0.520104 0.520104 0.520104 0.520104 0.520104 
15 0.506564 0.506564 0.506564 0.506564 0.506564 0.506564 0.506564 0.506564 0.506564 0.506564 
16 0.506368 0.506368 0.506368 0.506368 0.506368 0.506368 0.506368 0.506368 0.506368 0.506368 
17 0.504427 0.504427 0.504427 0.504427 0.504427 0.504427 0.504427 0.504427 0.504427 0.504427 
18 0.447677 0.447677 0.447677 0.447677 0.447677 0.447677 0.447677 0.447677 0.447677 0.447677 
19 0.460557 0.460557 0.460556 0.460556 0.460556 0.460556 0.460556 0.460556 0.460556 0.460557 
20 0.498261 0.498261 0.498261 0.498261 0.498261 0.498261 0.498261 0.498261 0.498261 0.498261 
21 0.478185 0.478185 0.478185 0.478185 0.478185 0.478185 0.478185 0.478185 0.478185 0.478185 
22 0.429083 0.429083 0.429083 0.429083 0.429083 0.429083 0.429083 0.429083 0.429083 0.429083 
23 0.475858 0.475858 0.475858 0.475858 0.475858 0.475858 0.475858 0.475858 0.475858 0.475858 
24 0.486762 0.486762 0.486762 0.486762 0.486762 0.486762 0.486762 0.486762 0.486762 0.486762 
25 0.482409 0.482409 0.482409 0.482409 0.482409 0.482409 0.482409 0.482409 0.482409 0.482409 
26 0.451725 0.451725 0.451725 0.451725 0.451725 0.451725 0.451725 0.451725 0.451725 0.451725 
27 0.435 0.435 0.435 0.435 0.435 0.435 0.435 0.435 0.435 0.435 
28 0.476882 0.476882 0.476882 0.476882 0.476882 0.476882 0.476882 0.476882 0.476882 0.476882 
29 0.446842 0.446842 0.446842 0.446842 0.446842 0.446842 0.446842 0.446842 0.446842 0.446842 
30 0.451014 0.451014 0.451014 0.451014 0.451014 0.451014 0.451014 0.451014 0.451014 0.451014 
31 0.370716 0.370716 0.370716 0.370716 0.370716 0.370716 0.370716 0.370716 0.370716 0.370716 
32 0.418293 0.418293 0.418293 0.418293 0.418293 0.418293 0.418293 0.418293 0.418293 0.418293 
33 0.434655 0.434655 0.434655 0.434655 0.434655 0.434655 0.434655 0.434655 0.434655 0.434655 
34 0.442748 0.442748 0.442748 0.442748 0.442748 0.442748 0.442748 0.442748 0.442748 0.442748 
35 0.379776 0.379776 0.379776 0.379776 0.379776 0.379776 0.379776 0.379776 0.379776 0.379776 
36 0.45181 0.45181 0.45181 0.45181 0.45181 0.45181 0.45181 0.45181 0.45181 0.45181 
37 0.444593 0.444593 0.444593 0.444593 0.444593 0.444593 0.444593 0.444593 0.444593 0.444593 
38 0.324796 0.324796 0.324796 0.324796 0.324796 0.324796 0.324796 0.324796 0.324796 0.324796 
39 0.43584 0.43584 0.43584 0.43584 0.43584 0.43584 0.43584 0.43584 0.43584 0.43584 
40 0.374109 0.374109 0.374109 0.374109 0.374109 0.374109 0.374109 0.374109 0.374109 0.374109 
41 0.347426 0.347426 0.347426 0.347426 0.347426 0.347426 0.347426 0.347426 0.347426 0.347426 
42 0.417281 0.417281 0.417281 0.417281 0.417281 0.417281 0.417281 0.417281 0.417281 0.417281 
43 0.393372 0.393372 0.393372 0.393372 0.393372 0.393372 0.393372 0.393372 0.393372 0.393372 
44 0.377691 0.377691 0.377691 0.377691 0.377691 0.377691 0.377691 0.377691 0.377691 0.377691 
45 0.416813 0.416813 0.416813 0.416813 0.416813 0.416813 0.416813 0.416813 0.416813 0.416813 
46 0.339952 0.339952 0.339952 0.339952 0.339952 0.339952 0.339952 0.339952 0.339952 0.339952 
47 0.358697 0.358697 0.358697 0.358697 0.358697 0.358697 0.358697 0.358697 0.358697 0.358697 
48 0.377054 0.377054 0.377054 0.377054 0.377054 0.377054 0.377054 0.377054 0.377054 0.377054 
49 0.29148 0.29148 0.29148 0.29148 0.29148 0.29148 0.29148 0.29148 0.29148 0.29148 
50 0.261837 0.261837 0.261837 0.261837 0.261837 0.261837 0.261837 0.261837 0.261837 0.261837 
51 0.401396 0.401396 0.401396 0.401396 0.401396 0.401396 0.401396 0.401396 0.401396 0.401396 
52 0.384043 0.384043 0.384043 0.384043 0.384043 0.384043 0.384043 0.384043 0.384043 0.384043 
53 0.246995 0.246995 0.246995 0.246995 0.246995 0.246995 0.246995 0.246995 0.246995 0.246995 
54 0.379859 0.379859 0.379859 0.379859 0.379859 0.379859 0.379859 0.379859 0.379859 0.379859 
55 0.296025 0.296025 0.296025 0.296025 0.296025 0.296025 0.296025 0.296025 0.296025 0.296025 
56 0.347562 0.347562 0.347562 0.347562 0.347562 0.347562 0.347562 0.347562 0.347562 0.347562 
57 0.270466 0.270466 0.270466 0.270466 0.270466 0.270466 0.270466 0.270466 0.270466 0.270466 
58 0.35423 0.35423 0.35423 0.35423 0.35423 0.35423 0.35423 0.35423 0.35423 0.35423 
59 0.296655 0.296655 0.296655 0.296655 0.296655 0.296655 0.296655 0.296655 0.296655 0.296655 
60 0.190935 0.190935 0.190935 0.190935 0.190935 0.190935 0.190935 0.190935 0.190935 0.190935 
61 0.347306 0.347306 0.347306 0.347306 0.347306 0.347306 0.347306 0.347306 0.347306 0.347306 
62 0.307364 0.307364 0.307364 0.307364 0.307364 0.307364 0.307364 0.307364 0.307364 0.307364 
63 0.261606 0.261606 0.261606 0.261606 0.261606 0.261606 0.261606 0.261606 0.261606 0.261606 
64 0.336033 0.336033 0.336033 0.336033 0.336033 0.336033 0.336033 0.336033 0.336033 0.336033 
65 0.215943 0.215943 0.215943 0.215943 0.215943 0.215943 0.215943 0.215943 0.215943 0.215943 
66 0.147652 0.147652 0.147652 0.147652 0.147652 0.147652 0.147652 0.147652 0.147652 0.147652 
67 0.317141 0.317141 0.317141 0.317141 0.317141 0.317141 0.317141 0.317141 0.317141 0.317141 
68 0.281288 0.281288 0.281288 0.281288 0.281288 0.281288 0.281288 0.281288 0.281288 0.281288 
69 0.259295 0.259295 0.259295 0.259295 0.259295 0.259295 0.259295 0.259295 0.259295 0.259295 
70 0.178893 0.178893 0.178893 0.178893 0.178893 0.178893 0.178893 0.178893 0.178893 0.178893 
71 0.313742 0.313742 0.313742 0.313742 0.313742 0.313742 0.313742 0.313742 0.313742 0.313742 
72 0.285223 0.285223 0.285223 0.285223 0.285223 0.285223 0.285223 0.285223 0.285223 0.285223 
73 0.210177 0.210177 0.210177 0.210177 0.210177 0.210177 0.210177 0.210177 0.210177 0.210177 
74 0.307867 0.307867 0.307867 0.307867 0.307867 0.307867 0.307867 0.307867 0.307867 0.307867 
75 0.100727 0.100727 0.100727 0.100727 0.100727 0.100727 0.100727 0.100727 0.100727 0.100727 
76 0.213613 0.213613 0.213613 0.213613 0.213613 0.213613 0.213613 0.213613 0.213613 0.213613 
77 0.237528 0.237528 0.237528 0.237528 0.237528 0.237528 0.237528 0.237528 0.237528 0.237528 
78 0.246943 0.246943 0.246943 0.246943 0.246943 0.246943 0.246943 0.246943 0.246943 0.246943 
79 0.113843 0.113843 0.113843 0.113843 0.113843 0.113843 0.113843 0.113843 0.113843 0.113843 
80 0.172043 0.172043 0.172043 0.172043 0.172043 0.172043 0.172043 0.172043 0.172043 0.172043 
81 0.0759063 0.0759063 0.0759063 0.0759063 0.0759063 0.0759063 0.0759063 0.0759063 0.0759063 0.0759063 
82 0.270869 0.270869 0.270869 0.270869 0.270869 0.270869 0.270869 0.270869 0.270869 0.270869 
83 0.275254 0.275254 0.275254 0.275254 0.275254 0.275254 0.275254 0.275254 0.275254 0.275254 
84 0.176886 0.176886 0.176886 0.176886 0.176886 0.176886 0.176886 0.176886 0.176886 0.176886 
85 0.206225 0.206225 0.206225 0.206225 0.206225 0.206225 0.206225 0.206225 0.206225 0.206225 
86 0.127247 0.127247 0.127247 0.127247 0.127247 0.127247 0.127247 0.127247 0.127247 0.127247 
87 0.226559 0.226559 0.226559 0.226559 0.226559 0.226559 0.226559 0.226559 0.226559 0.226559 
88 0.0945245 0.0945245 0.0945245 0.0945245 0.0945245 0.0945245 0.0945245 0.0945245 0.0945245 0.0945245 
89 0.235162 0.235162 0.235162 0.235162 0.235162 0.235162 0.235162 0.235162 0.235162 0.235162 
90 0.166342 0.166342 0.166342 0.166342 0.166342 0.166342 0.166342 0.166342 0.166342 0.166342 
91 0.246328 0.246328 0.246328 0.246328 0.246328 0.246328 0.246328 0.246328 0.246328 0.246328 
92 0.142507 0.142507 0.142507 0.142507 0.142507 0.142507 0.142507 0.142507 0.142507 0.142507 
93 0.0191871 0.0191871 0.0191871 0.0191871 0.0191871 0.0191871 0.0191871 0.0191871 0.0191871 0.0191871 
94 0.185095 0.185095 0.185095 0.185095 0.185095 0.185095 0.185095 0.185095 0.185095 0.185095 
95 0.0850955 0.0850955 0.0850955 0.0850955 0.0850955 0.0850955 0.0850955 0.0850955 0.0850955 0.0850955 
96 0.156545 0.156545 0.156545 0.156545 0.156545 0.156545 0.156545 0.156545 0.156545 0.156545 
97 0.0395665 0.0395665 0.0395665 0.0395665 0.0395665 0.0395665 0.0395665 0.0395665 0.0395665 0.0395665 
98 0.195036 0.195036 0.195036 0.195036 0.195036 0.195036 0.195036 0.195036 0.195036 0.195036 
99 0.0382919 0.0382919 0.0382919 0.0382919 0.0382919 0.0382919 0.0382919 0.0382919 0.0382919 0.0382919 
100 0.209799 0.209799 0.209799 0.209799 0.209799 0.209799 0.209799 0.209799 0.209799 0.209799 
101 -0.0142846 -0.0142846 -0.0142846 -0.0142846 -0.0142846 -0.0142846 -0.0142846 -0.0142846 -0.0142846 -0.0142846 
102 0.10009 0.10009 0.10009 0.10009 0.10009 0.10009 0.10009 0.10009 0.10009 0.10009 
103 0.157918 0.157918 0.157918 0.157918 0.157918 0.157918 0.157918 0.157918 0.157918 0.157918 
104 0.183497 0.183497 0.183497 0.183497 0.183497 0.183497 0.183497 0.183497 0.183497 0.183497 
105 0.0718542 0.0718542 0.0718542 0.0718542 0.0718542 0.0718542 0.0718542 0.0718542 0.0718542 0.0718542 
106 0.160411 0.160411 0.160411 0.160411 0.160411 0.160411 0.160411 0.160411 0.160411 0.160411 
107 -0.00512244 -0.00512244 -0.00512244 -0.00512244 -0.00512244 -0.00512244 -0.00512244 -0.00512244 -0.00512244 -0.00512244 
108 0.195348 0.195348 0.195348 0.195348 0.195348 0.195348 0.195348 0.195348 0.195348 0.195348 
109 0.107404 0.107404 0.107404 0.107404 0.107404 0.107404 0.107404 0.107404 0.107404 0.107404 
110 -0.0586323 -0.0586323 -0.0586323 -0.0586323 -0.0586323 -0.0586323 -0.0586323 -0.0586323 -0.0586323 -0.0586323 
111 -0.00361331 -0.00361331 -0.00361331 -0.00361331 -0.00361331 -0.00361331 -0.00361331 -0.00361331 -0.00361331 -0.00361331 
112 0.107828 0.107828 0.107828 0.107828 0.107828 0.107828 0.107828 0.107828 0.107828 0.107828 
113 0.073257 0.073257 0.073257 0.073257 0.073257 0.073257 0.073257 0.073257 0.073257 0.073257 
114 0.114891 0.114891 0.114891 0.114891 0.114891 0.114891 0.114891 0.114891 0.114891 0.114891 
115 0.142577 0.142577 0.142577 0.142577 0.142577 0.142577 0.142577 0.142577 0.142577 0.142577 
116 -0.0555167 -0.0555167 -0.0555167 -0.0555167 -0.0555167 -0.0555167 -0.0555167 -0.0555167 -0.0555167 -0.0555167 
117 0.165519 0.165519 0.165519 0.165519 0.165519 0.165519 0.165519 0.165519 0.165519 0.165519 
118 -0.0982337 -0.0982337 -0.0982337 -0.0982337 -0.0982337 -0.0982337 -0.0982337 -0.0982337 -0.0982337 -0.0982337 
119 0.0187563 0.0187563 0.0187563 0.0187563 0.0187563 0.0187563 0.0187563 0.0187563 0.0187563 0.0187563 
120 -0.0104741 -0.0104741 -0.0104741 -0.0104741 -0.0104741 -0.0104741 -0.0104741 -0.0104741 -0.0104741 -0.0104741 
121 -0.0525162 -0.0525162 -0.0525162 -0.0525162 -0.0525162 -0.0525162 -0.0525162 -0.0525162 -0.0525162 -0.0525162 
122 0.0825344 0.0825344 0.0825344 0.0825344 0.0825344 0.0825344 0.0825344 0.0825344 0.0825344 0.0825344 
123 0.107741 0.107741 0.107741 0.107741 0.107741 0.107741 0.107741 0.107741 0.107741 0.107741 
124 -0.103141 -0.103141 -0.103141 -0.103141 -0.103141 -0.103141 -0.103141 -0.103141 -0.103141 -0.103141 
125 0.138247 0.138247 0.138247 0.138247 0.138247 0.138247 0.138247 0.138247 0.138247 0.138247 
126 0.0257069 0.0257069 0.0257069 0.0257069 0.0257069 0.0257069 0.0257069 0.0257069 0.0257069 0.0257069 
127 0.0420247 0.0420247 0.0420247 0.0420247 0.0420247 0.0420247 0.0420247 0.0420247 0.0420247 0.0420247 
128 -0.0909794 -0.0909794 -0.0909794 -0.0909794 -0.0909794 -0.0909794 -0.0909794 -0.0909794 -0.0909794 -0.0909794 
129 -0.0620967 -0.0620967 -0.0620967 -0.0620967 -0.0620967 -0.0620967 -0.0620967 -0.0620967 -0.0620967 -0.0620967 
130 -0.0044843 -0.0044843 -0.0044843 -0.0044843 -0.0044843 -0.0044843 -0.0044843 -0.0044843 -0.0044843 -0.0044843 
131 0.0678797 0.0678797 0.0678797 0.0678797 0.0678797 0.0678797 0.0678797 0.0678797 0.0678797 0.0678797 
132 0.00511872 0.00511872 0.00511872 0.00511872 0.00511872 0.00511872 0.00511872 0.00511872 0.00511872 0.00511872 
133 -0.157685 -0.157685 -0.157685 -0.157685 -0.157685 -0.157685 -0.157685 -0.157685 -0.157685 -0.157685 
134 0.0329808 0.0329808 0.0329808 0.0329808 0.0329808 0.0329808 0.0329808 0.0329808 0.0329808 0.0329808 
135 0.10839 0.10839 0.10839 0.10839 0.10839 0.10839 0.10839 0.10839 0.10839 0.10839 
136 -0.0785852 -0.0785852 -0.0785852 -0.0785852 -0.0785852 -0.0785852 -0.0785852 -0.0785852 -0.0785852 -0.0785852 
137 -0.137409 -0.137409 -0.137409 -0.137409 -0.137409 -0.137409 -0.137409 -0.137409 -0.137409 -0.137409 
138 -0.0517267 -0.0517267 -0.0517267 -0.0517267 -0.0517267 -0.0517267 -0.0517267 -0.0517267 -0.0517267 -0.0517267 
139 0.0602849 0.0602849 0.0602849 0.0602849 0.0602849 0.0602849 0.0602849 0.0602849 0.0602849 0.0602849 
140 -0.167874 -0.167874 -0.167874 -0.167874 -0.167874 -0.167874 -0.167874 -0.167874 -0.167874 -0.167874 
141 0.0785402 0.0785402 0.0785402 0.0785402 0.0785402 0.0785402 0.0785402 0.0785402 0.0785402 0.0785402 
142 0.00279142 0.00279142 0.00279142 0.00279142 0.00279142 0.00279142 0.00279142 0.00279142 0.00279142 0.00279142 
143 -0.124714 -0.124714 -0.124714 -0.124714 -0.124714 -0.124714 -0.124714 -0.124714 -0.124714 -0.124714 
144 -0.0317538 -0.0317538 -0.0317538 -0.0317538 -0.0317538 -0.0317538 -0.0317538 -0.0317538 -0.0317538 -0.0317538 
145 -0.155936 -0.155936 -0.155936 -0.155936 -0.155936 -0.155936 -0.155936 -0.155936 -0.155936 -0.155936 
146 -0.0875062 -0.0875062 -0.0875062 -0.0875062 -0.0875062 -0.0875062 -0.0875062 -0.0875062 -0.0875062 -0.0875062 
147 0.0186031 0.0186031 0.0186031 0.0186031 0.0186031 0.0186031 0.0186031 0.0186031 0.0186031 0.0186031 
148 -0.0246015 -0.0246015 -0.0246015 -0.0246015 -0.0246015 -0.0246015 -0.0246015 -0.0246015 -0.0246015 -0.0246015 
149 -0.128546 -0.128546 -0.128546 -0.128546 -0.128546 -0.128546 -0.128546 -0.128546 -0.128546 -0.128546 
150 -0.225709 -0.225709 -0.225709 -0.225709 -0.225709 -0.225709 -0.225709 -0.225709 -0.225709 -0.225709 
151 0.0468449 0.0468449 0.0468449 0.0468449 0.0468449 0.0468449 0.0468449 0.0468449 0.0468449 0.0468449 
152 -0.187966 -0.187966 -0.187966 -0.187966 -0.187966 -0.187966 -0.187966 -0.187966 -0.187966 -0.187966 
153 0.00167709 0.00167709 0.00167709 0.00167709 0.00167709 0.00167709 0.00167709 0.00167709 0.00167709 0.00167709 
154 -0.100123 -0.100123 -0.100123 -0.100123 -0.100123 -0.100123 -0.100123 -0.100123 -0.100123 -0.100123 
155 -0.0740922 -0.0740922 -0.0740922 -0.0740922 -0.0740922 -0.0740922 -0.0740922 -0.0740922 -0.0740922 -0.0740922 
156 -0.227553 -0.227553 -0.227553 -0.227553 -0.227553 -0.227553 -0.227553 -0.227553 -0.227553 -0.227553 
157 0.0136298 0.0136298 0.0136298 0.0136298 0.0136298 0.0136298 0.0136298 0.0136298 0.0136298 0.0136298 
158 -0.17151 -0.17151 -0.17151 -0.17151 -0.17151 -0.17151 -0.17151 -0.17151 -0.17151 -0.17151 
159 -0.200285 -0.200285 -0.200285 -0.200285 -0.200285 -0.200285 -0.200285 -0.200285 -0.200285 -0.200285 
160 -0.0541044 -0.0541044 -0.0541044 -0.0541044 -0.0541044 -0.0541044 -0.0541044 -0.0541044 -0.0541044 -0.0541044 
161 -0.0425178 -0.0425178 -0.0425178 -0.0425178 -0.0425178 -0.0425178 -0.0425178 -0.0425178 -0.0425178 -0.0425178 
162 -0.0884111 -0.0884112 -0.0884112 -0.0884112 -0.0884112 -0.0884111 -0.0884111 -0.0884111 -0.0884111 -0.0884111 
163 -0.259743 -0.259743 -0.259743 -0.259743 -0.259743 -0.259743 -0.259743 -0.259743 -0.259743 -0.259743 
164 -0.151354 -0.151354 -0.151354 -0.151354 -0.151354 -0.151354 -0.151354 -0.151354 -0.151354 -0.151354 
165 -0.0164726 -0.0164726 -0.0164726 -0.0164726 -0.0164726 -0.0164726 -0.0164726 -0.0164726 -0.0164726 -0.0164726 
166 -0.182394 -0.182394 -0.182394 -0.182394 -0.182394 -0.182394 -0.182394 -0.182394 -0.182394 -0.182394 
167 -0.23784 -0.23784 -0.23784 -0.23784 -0.23784 -0.23784 -0.23784 -0.23784 -0.23784 -0.23784 
168 -0.0495482 -0.0495482 -0.0495482 -0.0495482 -0.0495482 -0.0495482 -0.0495482 -0.0495482 -0.0495482 -0.0495482 
169 -0.132622 -0.132622 -0.132622 -0.132622 -0.132622 -0.132622 -0.132622 -0.132622 -0.132622 -0.132622 
170 -0.26384 -0.26384 -0.26384 -0.26384 -0.26384 -0.26384 -0.26384 -0.26384 -0.26384 -0.26384 
171 -0.301457 -0.301457 -0.301457 -0.301457 -0.301457 -0.301457 -0.301457 -0.301457 -0.301457 -0.301457 
172 -0.0774127 -0.0774127 -0.0774127 -0.0774127 -0.0774127 -0.0774127 -0.0774127 -0.0774127 -0.0774127 -0.0774127 
173 -0.170737 -0.170737 -0.170737 -0.170737 -0.170737 -0.170737 -0.170737 -0.170737 -0.170737 -0.170737 
174 -0.0337202 -0.0337202 -0.0337202 -0.0337202 -0.0337202 -0.0337202 -0.0337202 -0.0337202 -0.0337202 -0.0337202 
175 -0.226789 -0.226789 -0.226789 -0.226789 -0.226789 -0.226789 -0.226789 -0.226789 -0.226789 -0.226789 
176 -0.258742 -0.258742 -0.258742 -0.258742 -0.258742 -0.258742 -0.258742 -0.258742 -0.258742 -0.258742 
177 -0.30546 -0.30546 -0.30546 -0.30546 -0.30546 -0.30546 -0.30546 -0.30546 -0.30546 -0.30546 
178 -0.114385 -0.114385 -0.114385 -0.114385 -0.114385 -0.114385 -0.114385 -0.114385 -0.114385 -0.114385 
179 -0.143049 -0.143049 -0.143049 -0.143049 -0.143049 -0.143049 -0.143049 -0.143049 -0.143049 -0.143049 
180 -0.0712462 -0.0712462 -0.0712462 -0.0712462 -0.0712462 -0.0712462 -0.0712462 -0.0712462 -0.0712462 -0.0712462 
181 -0.21548 -0.21548 -0.21548 -0.21548 -0.21548 -0.21548 -0.21548 -0.21548 -0.21548 -0.21548 
182 -0.241006 -0.241006 -0.241006 -0.241006 -0.241006 -0.241006 -0.241006 -0.241006 -0.241006 -0.241006 
183 -0.326588 -0.326588 -0.326588 -0.326588 -0.326588 -0.326588 -0.326588 -0.326588 -0.326588 -0.326588 
184 -0.293993 -0.293993 -0.293993 -0.293993 -0.293993 -0.293993 -0.293993 -0.293993 -0.293993 -0.293993 
185 -0.101929 -0.101929 -0.101929 -0.101929 -0.101929 -0.101929 -0.101929 -0.101929 -0.101929 -0.101929 
186 -0.184771 -0.184771 -0.184771 -0.184771 -0.184771 -0.184771 -0.184771 -0.184771 -0.184771 -0.184771 
187 -0.319056 -0.319056 -0.319056 -0.319056 -0.319056 -0.319056 -0.319056 -0.319056 -0.319056 -0.319056 
188 -0.145743 -0.145743 -0.145743 -0.145743 -0.145743 -0.145743 -0.145743 -0.145743 -0.145743 -0.145743 
189 -0.28221 -0.28221 -0.28221 -0.28221 -0.28221 -0.28221 -0.28221 -0.28221 -0.28221 -0.28221 
190 -0.138807 -0.138807 -0.138807 -0.138807 -0.138807 -0.138807 -0.138807 -0.138807 -0.138807 -0.138807 
191 -0.234072 -0.234072 -0.234072 -0.234072 -0.234072 -0.234072 -0.234072 -0.234072 -0.234072 -0.234072 
192 -0.217749 -0.217749 -0.217749 -0.217749 -0.217749 -0.217749 -0.217749 -0.217749 -0.217749 -0.217749 
193 -0.356014 -0.356014 -0.356014 -0.356014 -0.356014 -0.356014 -0.356014 -0.356014 -0.356014 -0.356014 
194 -0.114941 -0.114941 -0.114941 -0.114941 -0.114941 -0.114941 -0.114941 -0.114941 -0.114941 -0.114941 
195 -0.18116 -0.18116 -0.18116 -0.18116 -0.18116 -0.18116 -0.18116 -0.18116 -0.18116 -0.18116 
196 -0.299971 -0.299971 -0.299971 -0.299971 -0.299971 -0.299971 -0.299971 -0.299971 -0.299971 -0.299971 
197 -0.276415 -0.276415 -0.276415 -0.276415 -0.276415 -0.276415 -0.276415 -0.276415 -0.276415 -0.276415 
198 -0.212968 -0.212968 -0.212968 -0.212968 -0.212968 -0.212968 -0.212968 -0.212968 -0.212968 -0.212968 
199 -0.347406 -0.347406 -0.347406 -0.347406 -0.347406 -0.347406 -0.347406 -0.347406 -0.347406 -0.347406 
200 -0.238489 -0.238489 -0.238489 -0.238489 -0.238489 -0.238489 -0.238489 -0.238489 -0.238489 -0.238489 
201 -0.17594 -0.17594 -0.17594 -0.17594 -0.17594 -0.17594 -0.17594 -0.17594 -0.17594 -0.17594 
202 -0.367431 -0.367431 -0.367431 -0.367431 -0.367431 -0.367431 -0.367431 -0.367431 -0.367431 -0.367431 
203 -0.163227 -0.163227 -0.163227 -0.163227 -0.163227 -0.163227 -0.163227 -0.163227 -0.163227 -0.163227 
204 -0.327273 -0.327273 -0.327273 -0.327273 -0.327273 -0.327273 -0.327273 -0.327273 -0.327273 -0.327273 
205 -0.216944 -0.216944 -0.216944 -0.216944 -0.216944 -0.216944 -0.216944 -0.216944 -0.216944 -0.216944 
206 -0.347612 -0.347612 -0.347612 -0.347612 -0.347612 -0.347612 -0.347612 -0.347612 -0.347612 -0.347612 
207 -0.290466 -0.290466 -0.290466 -0.290466 -0.290466 -0.290466 -0.290466 -0.290466 -0.290466 -0.290466 
208 -0.203967 -0.203967 -0.203967 -0.203967 -0.203967 -0.203967 -0.203967 -0.203967 -0.203967 -0.203967 
209 -0.268772 -0.268772 -0.268772 -0.268772 -0.268772 -0.268772 -0.268772 -0.268772 -0.268772 -0.268772 
210 -0.249091 -0.249091 -0.249091 -0.249091 -0.249091 -0.249091 -0.249091 -0.249091 -0.249091 -0.249091 
211 -0.342767 -0.342767 -0.342767 -0.342767 -0.342767 -0.342767 -0.342767 -0.342767 -0.342767 -0.342767 
212 -0.190755 -0.190755 -0.190755 -0.190755 -0.190755 -0.190755 -0.190755 -0.190755 -0.190755 -0.190755 
213 -0.391737 -0.391737 -0.391737 -0.391737 -0.391737 -0.391737 -0.391737 -0.391737 -0.391737 -0.391737 
214 -0.236011 -0.236011 -0.236011 -0.236011 -0.236011 -0.236011 -0.236011 -0.236011 -0.236011 -0.236011 
215 -0.275162 -0.275162 -0.275162 -0.275162 -0.275162 -0.275162 -0.275162 -0.275162 -0.275162 -0.275162 
216 -0.362408 -0.362408 -0.362408 -0.362408 -0.362408 -0.362408 -0.362408 -0.362408 -0.362408 -0.362408 
217 -0.322796 -0.322796 -0.322796 -0.322796 -0.322796 -0.322796 -0.322796 -0.322796 -0.322796 -0.322796 
218 -0.344925 -0.344925 -0.344925 -0.344925 -0.344925 -0.344925 -0.344925 -0.344925 -0.344925 -0.344925 
219 -0.384639 -0.384639 -0.384639 -0.384639 -0.384639 -0.384639 -0.384639 -0.384639 -0.384639 -0.384639 
220 -0.252451 -0.252451 -0.252451 -0.252451 -0.252451 -0.252451 -0.252451 -0.252451 -0.252451 -0.252451 
221 -0.398742 -0.398742 -0.398742 -0.398742 -0.398742 -0.398742 -0.398742 -0.398742 -0.398742 -0.398742 
222 -0.304771 -0.304771 -0.304771 -0.304771 -0.304771 -0.304771 -0.304771 -0.304771 -0.304771 -0.304771 
223 -0.230111 -0.230111 -0.230111 -0.230111 -0.230111 -0.230111 -0.230111 -0.230111 -0.230111 -0.230111 
224 -0.329795 -0.329795 -0.329795 -0.329795 -0.329795 -0.329795 -0.329795 -0.329795 -0.329795 -0.329795 
225 -0.287582 -0.287582 -0.287582 -0.287582 -0.287582 -0.287582 -0.287582 -0.287582 -0.287582 -0.287582 
226 -0.368329 -0.368329 -0.368329 -0.368329 -0.368329 -0.368329 -0.368329 -0.368329 -0.368329 -0.368329 
227 -0.385665 -0.385665 -0.385665 -0.385665 -0.385665 -0.385665 -0.385665 -0.385665 -0.385665 -0.385665 
228 -0.309803 -0.309803 -0.309803 -0.309803 -0.309803 -0.309803 -0.309803 -0.309803 -0.309803 -0.309803 
229 -0.247901 -0.247901 -0.247901 -0.247901 -0.247901 -0.247901 -0.247901 -0.247901 -0.247901 -0.247901 
230 -0.416071 -0.416071 -0.416071 -0.416071 -0.416071 -0.416071 -0.416071 -0.416071 -0.416071 -0.416071 
231 -0.356973 -0.356973 -0.356973 -0.356973 -0.356973 -0.356973 -0.356973 -0.356973 -0.356973 -0.356973 
232 -0.306603 -0.306603 -0.306603 -0.306603 -0.306603 -0.306603 -0.306603 -0.306603 -0.306603 -0.306603 
233 -0.336452 -0.336452 -0.336452 -0.336452 -0.336452 -0.336452 -0.336452 -0.336452 -0.336452 -0.336452 
234 -0.400948 -0.400948 -0.400948 -0.400948 -0.400948 -0.400948 -0.400948 -0.400948 -0.400948 -0.400948 
235 -0.367198 -0.367198 -0.367198 -0.367198 -0.367198 -0.367198 -0.367198 -0.367198 -0.367198 -0.367198 
236 -0.4207 -0.4207 -0.4207 -0.4207 -0.4207 -0.4207 -0.4207 -0.4207 -0.4207 -0.4207 
237 -0.282063 -0.282063 -0.282063 -0.282063 -0.282063 -0.282063 -0.282063 -0.282063 -0.282063 -0.282063 
238 -0.333757 -0.333757 -0.333757 -0.333757 -0.333757 -0.333757 -0.333757 -0.333757 -0.333757 -0.333757 
239 -0.358018 -0.358018 -0.358018 -0.358018 -0.358018 -0.358018 -0.358018 -0.358018 -0.358018 -0.358018 
240 -0.415824 -0.415824 -0.415824 -0.415824 -0.415824 -0.415824 -0.415824 -0.415824 -0.415824 -0.415824 
241 -0.303879 -0.303879 -0.303879 -0.303879 -0.303879 -0.303879 -0.303879 -0.303879 -0.303879 -0.303879 
242 -0.402012 -0.402012 -0.402012 -0.402012 -0.402012 -0.402012 -0.402012 -0.402012 -0.402012 -0.402012 
243 -0.354133 -0.354133 -0.354133 -0.354133 -0.354133 -0.354133 -0.354133 -0.354133 -0.354133 -0.354133 
244 -0.392267 -0.392267 -0.392267 -0.392267 -0.392267 -0.392267 -0.392267 -0.392267 -0.392267 -0.392267 
245 -0.370706 -0.370706 -0.370706 -0.370706 -0.370706 -0.370706 -0.370706 -0.370706 -0.370706 -0.370706 
246 -0.429356 -0.429356 -0.429356 -0.429356 -0.429356 -0.429356 -0.429356 -0.429356 -0.429356 -0.429356 
247 -0.298503 -0.298503 -0.298503 -0.298503 -0.298503 -0.298503 -0.298503 -0.298503 -0.298503 -0.298503 
248 -0.332327 -0.332327 -0.332327 -0.332327 -0.332327 -0.332327 -0.332327 -0.332327 -0.332327 -0.332327 
249 -0.353341 -0.353341 -0.353341 -0.353341 -0.353341 -0.353341 -0.353341 -0.353341 -0.353341 -0.353341 
250 -0.423936 -0.423936 -0.423936 -0.423936 -0.423936 -0.423936 -0.423936 -0.423936 -0.423936 -0.423936 
251 -0.418462 -0.418462 -0.418462 -0.418462 -0.418462 -0.418462 -0.418462 -0.418462 -0.418462 -0.418462 
252 -0.389432 -0.389432 -0.389432 -0.389432 -0.389432 -0.389432 -0.389432 -0.389432 -0.389432 -0.389432 
253 -0.400713 -0.400713 -0.400713 -0.400713 -0.400713 -0.400713 -0.400713 -0.400713 -0.400713 -0.400713 
254 -0.429831 -0.429831 -0.429831 -0.429831 -0.429831 -0.429831 -0.429831 -0.429831 -0.429831 -0.429831 
255 -0.327097 -0.327097 -0.327097 -0.327097 -0.327097 -0.327097 -0.327097 -0.327097 -0.327097 -0.327097 
256 -0.372821 -0.372821 -0.372821 -0.372821 -0.372821 -0.372821 -0.372821 -0.372821 -0.372821 -0.372821 
257 -0.432106 -0.432106 -0.432106 -0.432106 -0.432106 -0.432106 -0.432106 -0.432106 -0.432106 -0.432106 
258 -0.424209 -0.424209 -0.424209 -0.424209 -0.424209 -0.424209 -0.424209 -0.424209 -0.424209 -0.424209 
259 -0.341477 -0.341477 -0.341477 -0.341477 -0.341477 -0.341477 -0.341477 -0.341477 -0.341477 -0.341477 
260 -0.391613 -0.391613 -0.391613 -0.391613 -0.391613 -0.391613 -0.391613 -0.391613 -0.391613 -0.391613 
261 -0.417414 -0.417414 -0.417414 -0.417414 -0.417414 -0.417414 -0.417414 -0.417414 -0.417414 -0.417414 
262 -0.43105 -0.43105 -0.43105 -0.43105 -0.43105 -0.43105 -0.43105 -0.43105 -0.43105 -0.43105 
263 -0.342355 -0.342355 -0.342355 -0.342355 -0.342355 -0.342355 -0.342355 -0.342355 -0.342355 -0.342355 
264 -0.431352 -0.431352 -0.431352 -0.431352 -0.431352 -0.431352 -0.431352 -0.431352 -0.431352 -0.431352 
265 -0.364079 -0.364079 -0.364079 -0.364079 -0.364079 -0.364079 -0.364079 -0.364079 -0.364079 -0.364079 
266 -0.430644 -0.430644 -0.430644 -0.430644 -0.430644 -0.430644 -0.430644 -0.430644 -0.430644 -0.430644 
267 -0.375125 -0.375125 -0.375125 -0.375125 -0.375125 -0.375125 -0.375125 -0.375125 -0.375125 -0.375125 
268 -0.422778 -0.422778 -0.422778 -0.422778 -0.422778 -0.422778 -0.422778 -0.422778 -0.422778 -0.422778 
269 -0.430841 -0.430841 -0.430841 -0.430841 -0.430841 -0.430841 -0.430841 -0.430841 -0.430841 -0.430841 
270 -0.406375 -0.406375 -0.406375 -0.406375 -0.406375 -0.406375 -0.406375 -0.406375 -0.406375 -0.406375 
271 -0.364435 -0.364435 -0.364435 -0.364435 -0.364435 -0.364435 -0.364435 -0.364435 -0.364435 -0.364435 
272 -0.431322 -0.431322 -0.431322 -0.431322 -0.431322 -0.431322 -0.431322 -0.431322 -0.431322 -0.431322 
273 -0.418285 -0.418285 -0.418285 -0.418285 -0.418285 -0.418285 -0.418285 -0.418285 -0.418285 -0.418285 
274 -0.429516 -0.429516 -0.429516 -0.429516 -0.429516 -0.429516 -0.429516 -0.429516 -0.429516 -0.429516 
275 -0.396854 -0.396854 -0.396854 -0.396854 -0.396854 -0.396854 -0.396854 -0.396854 -0.396854 -0.396854 
276 -0.429845 -0.429845 -0.429845 -0.429845 -0.429845 -0.429845 -0.429845 -0.429845 -0.429845 -0.429845 
277 -0.379479 -0.379479 -0.379479 -0.379479 -0.379479 -0.379479 -0.379479 -0.379479 -0.379479 -0.379479 
278 -0.430673 -0.430673 -0.430673 -0.430673 -0.430673 -0.430673 -0.430673 -0.430673 -0.430673 -0.430673 
279 -0.406312 -0.406312 -0.406312 -0.406312 -0.406312 -0.406312 -0.406312 -0.406312 -0.406312 -0.406312 
280 -0.432288 -0.432288 -0.432288 -0.432288 -0.432288 -0.432288 -0.432288 -0.432288 -0.432288 -0.432288 
281 -0.430312 -0.430312 -0.430312 -0.430312 -0.430312 -0.430312 -0.430312 -0.430312 -0.430312 -0.430312 
282 -0.399174 -0.399174 -0.399174 -0.399174 -0.399174 -0.399174 -0.399174 -0.399174 -0.399174 -0.399174 
283 -0.425525 -0.425525 -0.425525 -0.425525 -0.425525 -0.425525 -0.425525 -0.425525 -0.425525 -0.425525 
284 -0.423227 -0.423227 -0.423227 -0.423227 -0.423227 -0.423227 -0.423227 -0.423227 -0.423227 -0.423227 
285 -0.381183 -0.381183 -0.381183 -0.381183 -0.381183 -0.381183 -0.381183 -0.381183 -0.381183 -0.381183 
286 -0.429997 -0.429997 -0.429997 -0.429997 -0.429997 -0.429997 -0.429997 -0.429997 -0.429997 -0.429997 
287 -0.431808 -0.431808 -0.431808 -0.431808 -0.431808 -0.431808 -0.431808 -0.431808 -0.431808 -0.431808 
288 -0.420834 -0.420834 -0.420834 -0.420834 -0.420834 -0.420834 -0.420834 -0.420834 -0.420834 -0.420834 
289 -0.425481 -0.425481 -0.425481 -0.425481 -0.425481 -0.425481 -0.425481 -0.425481 -0.425481 -0.425481 
290 -0.411879 -0.411879 -0.411879 -0.411879 -0.411879 -0.411879 -0.411879 -0.411879 -0.411879 -0.411879 
291 -0.43236 -0.43236 -0.43236 -0.43236 -0.43236 -0.43236 -0.43236 -0.43236 -0.43236 -0.43236 
292 -0.432055 -0.432055 -0.432055 -0.432055 -0.432055 -0.432055 -0.432055 -0.432055 -0.432055 -0.432055 
293 -0.426494 -0.426494 -0.426494 -0.426494 -0.426494 -0.426494 -0.426494 -0.426494 -0.426494 -0.426494 
294 -0.403263 -0.403263 -0.403263 -0.403263 -0.403263 -0.403263 -0.403263 -0.403263 -0.403263 -0.403263 