VARIABLES = "Cell" "Mode 0" "Mode 1" "Mode 2" "Mode 3" "Mode 4" "Mode 5" "Mode 6" "Mode 7" "Mode 8" "Mode 9" 
ZONE T = Iteration3
0 0.18642 0.130501 0.0841962 0.0448124 -9.52912e-22 0 0 0 0 0 
1 0.20527 0.154814 0.102013 0.0507716 -9.52912e-22 0 0 0 0 0 
2 0.203673 0.152458 0.100354 0.0502299 -9.52912e-22 0 0 0 0 0 
3 0.19604 0.147201 0.0991547 0.0503377 -9.66147e-22 0 0 0 0 0 
4 0.179922 0.122228 0.0654965 0.0203673 -9.66147e-22 0 0 0 0 0 
5 0.209406 0.155448 0.102005 0.0507611 -9.39677e-22 0 0 0 0 0 
6 0.167847 0.12582 0.0880552 0.0473991 -9.66147e-22 0 0 0 0 0 
7 0.210649 0.155557 0.102016 0.050768 -9.52912e-22 0 0 0 0 0 
8 0.210654 0.15556 0.102017 0.050768 -9.79382e-22 0 0 0 0 0 
9 0.210642 0.155559 0.102016 0.050768 -9.66147e-22 0 0 0 0 0 
10 0.195685 0.152278 0.101812 0.0507828 -9.79382e-22 0 0 0 0 0 
11 0.20759 0.155285 0.102026 0.0507664 -9.79382e-22 0 0 0 0 0 
12 0.210656 0.15556 0.102017 0.050768 -9.66147e-22 0 0 0 0 0 
13 0.210653 0.155559 0.102016 0.050768 -9.79382e-22 0 0 0 0 0 
14 0.17875 0.144411 0.100534 0.0508466 -9.52912e-22 0 0 0 0 0 
15 0.210591 0.155561 0.102015 0.0507679 -9.92617e-22 0 0 0 0 0 
16 0.210316 0.155567 0.102016 0.0507671 -9.39677e-22 0 0 0 0 0 
17 0.150625 0.092939 0.0293887 -0.0231508 -9.66147e-22 0 0 0 0 0 
18 0.210657 0.155559 0.102017 0.050768 -9.92617e-22 0 0 0 0 0 
19 0.210667 0.155559 0.102016 0.050768 -9.92617e-22 0 0 0 0 0 
20 0.131863 0.0863523 0.0662608 0.0437658 -9.39677e-22 0 0 0 0 0 
21 0.205263 0.155301 0.102088 0.0507561 -1.00585e-21 0 0 0 0 0 
22 0.210661 0.155559 0.102016 0.050768 -9.52912e-22 0 0 0 0 0 
23 0.196975 0.153856 0.102202 0.0508035 -9.92617e-22 0 0 0 0 0 
24 0.126353 0.0635349 0.0220161 0.0168521 -9.26442e-22 0 0 0 0 0 
25 0.137104 0.124625 0.097728 0.051325 -9.66147e-22 0 0 0 0 0 
26 0.210686 0.155572 0.102016 0.0507679 -9.26442e-22 0 0 0 0 0 
27 0.21069 0.155561 0.102016 0.0507679 -9.92617e-22 0 0 0 0 0 
28 0.110689 0.0890254 0.0797274 0.0486893 -9.92617e-22 0 0 0 0 0 
29 0.210288 0.155662 0.102031 0.0507673 -1.01909e-21 0 0 0 0 0 
30 0.144056 0.136085 0.100509 0.0511011 -9.66147e-22 0 0 0 0 0 
31 0.210683 0.155562 0.102016 0.0507679 -9.26442e-22 0 0 0 0 0 
32 0.210669 0.155615 0.102021 0.050768 -1.01909e-21 0 0 0 0 0 
33 0.209077 0.155725 0.102066 0.0507669 -9.26442e-22 0 0 0 0 0 
34 0.180217 0.150585 0.102389 0.0509387 -9.52912e-22 0 0 0 0 0 
35 0.210704 0.155566 0.102017 0.050768 -9.39677e-22 0 0 0 0 0 
36 0.0904659 0.0259451 -0.010319 0.00651486 -1.00585e-21 0 0 0 0 0 
37 0.076002 0.0366011 0.0402352 0.0393351 -9.79382e-22 0 0 0 0 0 
38 0.210673 0.15556 0.102016 0.0507679 -1.04556e-21 0 0 0 0 0 
39 0.0820301 0.0219607 -0.039881 -0.0683512 -8.86738e-22 0 0 0 0 0 
40 0.210776 0.155672 0.102037 0.05077 -9.66147e-22 0 0 0 0 0 
41 0.210785 0.155598 0.102022 0.0507683 -1.01909e-21 0 0 0 0 0 
42 0.100468 0.113006 0.0947092 0.0506432 -9.13207e-22 0 0 0 0 0 
43 0.18154 0.152177 0.102606 0.0509085 -9.52912e-22 0 0 0 0 0 
44 0.20879 0.156052 0.102184 0.0507878 -9.52912e-22 0 0 0 0 0 
45 0.0431941 0.048895 0.0650834 0.046225 -9.52912e-22 0 0 0 0 0 
46 0.21051 0.155891 0.102096 0.0507773 -8.99973e-22 0 0 0 0 0 
47 0.199546 0.155539 0.102491 0.0508326 -1.01909e-21 0 0 0 0 0 
48 0.13331 0.13515 0.100459 0.0510272 -1.03232e-21 0 0 0 0 0 
49 0.210864 0.155601 0.102021 0.0507681 -9.52912e-22 0 0 0 0 0 
50 0.210683 0.15556 0.102016 0.0507679 -9.13207e-22 0 0 0 0 0 
51 0.052155 -0.0132763 -0.0871041 -0.115521 -9.52912e-22 0 0 0 0 0 
52 -0.00295782 -0.0159156 0.0277553 0.0394903 -1.03232e-21 0 0 0 0 0 
53 0.210727 0.155567 0.102017 0.0507679 -9.66147e-22 0 0 0 0 0 
54 0.0125099 -0.0676083 -0.0779815 -0.0202559 -1.01909e-21 0 0 0 0 0 
55 0.211276 0.155944 0.102095 0.0507761 -1.05879e-21 0 0 0 0 0 
56 0.0873002 0.117159 0.0981926 0.0514343 -8.60268e-22 0 0 0 0 0 
57 0.211129 0.155693 0.102036 0.0507693 -8.73503e-22 0 0 0 0 0 
58 -0.00576707 0.0454263 0.0743606 0.0495778 -8.86738e-22 0 0 0 0 0 
59 0.19458 0.155644 0.102948 0.0509815 -9.26442e-22 0 0 0 0 0 
60 0.210754 0.155572 0.102017 0.050768 -8.99973e-22 0 0 0 0 0 
61 -0.00860616 -0.0890698 -0.138921 -0.0529241 -9.66147e-22 0 0 0 0 0 
62 0.106586 0.129925 0.101247 0.0513773 -9.92617e-22 0 0 0 0 0 
63 0.21135 0.156449 0.102245 0.0507925 -8.99973e-22 0 0 0 0 0 
64 -0.0148 -0.072558 -0.150234 -0.201235 -9.66147e-22 0 0 0 0 0 
65 0.211137 0.155689 0.102036 0.0507693 -1.03232e-21 0 0 0 0 0 
66 0.210696 0.155563 0.102017 0.050768 -1.03232e-21 0 0 0 0 0 
67 -0.0645616 -0.00454579 0.0578001 0.0485819 -1.03232e-21 0 0 0 0 0 
68 0.164278 0.150578 0.10324 0.0513008 -9.66147e-22 0 0 0 0 0 
69 0.206901 0.156524 0.102452 0.0508285 -9.39677e-22 0 0 0 0 0 
70 0.210891 0.155601 0.102021 0.0507681 -8.86738e-22 0 0 0 0 0 
71 -0.0901399 -0.106772 -0.0267613 0.02855 -1.07203e-21 0 0 0 0 0 
72 0.0159297 0.0791525 0.0907025 0.0515304 -1.08526e-21 0 0 0 0 0 
73 0.21134 0.155915 0.102086 0.0507749 -9.66147e-22 0 0 0 0 0 
74 -0.0410273 -0.0946252 -0.18413 -0.248524 -8.20563e-22 0 0 0 0 0 
75 0.210675 0.15556 0.102016 0.050768 -9.52912e-22 0 0 0 0 0 
76 0.201207 0.155414 0.102203 0.0507771 -1.0985e-21 0 0 0 0 0 
77 0.144031 0.145009 0.102126 0.0508955 -9.66147e-22 0 0 0 0 0 
78 0.0411419 0.102186 0.0951335 0.0510276 -9.66147e-22 0 0 0 0 0 
79 0.210761 0.155568 0.102016 0.0507679 -9.92617e-22 0 0 0 0 0 
80 0.210338 0.155703 0.102025 0.050766 -9.92617e-22 0 0 0 0 0 
81 0.210673 0.155558 0.102016 0.0507679 -9.66147e-22 0 0 0 0 0 
82 -0.120084 -0.174098 -0.0804818 0.015761 -8.60268e-22 0 0 0 0 0 
83 -0.074352 -0.180324 -0.22712 -0.0952147 -1.04556e-21 0 0 0 0 0 
84 0.207345 0.155712 0.102066 0.0507648 -9.66147e-22 0 0 0 0 0 
85 0.177498 0.152075 0.102306 0.0508082 -9.13207e-22 0 0 0 0 0 
86 0.210647 0.155598 0.102013 0.0507669 -8.86738e-22 0 0 0 0 0 
87 -0.0536869 0.0460256 0.0800294 0.0503656 -8.33798e-22 0 0 0 0 0 
88 0.210782 0.155572 0.102013 0.0507675 -1.03232e-21 0 0 0 0 0 
89 -0.189378 -0.0933346 0.0215174 0.0443152 -1.07203e-21 0 0 0 0 0 
90 0.177777 0.152024 0.102231 0.0507916 -1.04556e-21 0 0 0 0 0 
91 -0.0908075 -0.160039 -0.259609 -0.257313 -8.73503e-22 0 0 0 0 0 
92 0.200872 0.155252 0.102185 0.0507746 -8.73503e-22 0 0 0 0 0 
93 0.210654 0.155558 0.102016 0.050768 -1.08526e-21 0 0 0 0 0 
94 0.0383866 0.105545 0.095818 0.0508617 -1.08526e-21 0 0 0 0 0 
95 0.210196 0.155593 0.102017 0.0507676 -1.11173e-21 0 0 0 0 0 
96 0.142247 0.144674 0.102022 0.050838 -8.33798e-22 0 0 0 0 0 
97 0.210685 0.155561 0.102014 0.0507678 -9.79382e-22 0 0 0 0 0 
98 -0.239959 -0.162825 -0.00550109 0.0405416 -9.39677e-22 0 0 0 0 0 
99 0.210622 0.155563 0.102016 0.0507685 -9.66147e-22 0 0 0 0 0 
100 -0.134036 -0.242253 -0.302441 -0.127948 -1.04556e-21 0 0 0 0 0 
101 0.210638 0.155558 0.102017 0.050768 -7.80858e-22 0 0 0 0 0 
102 0.203329 0.155424 0.102059 0.050754 -9.39677e-22 0 0 0 0 0 
103 -0.0267471 0.0769893 0.0910113 0.0507651 -7.94093e-22 0 0 0 0 0 
104 -0.23066 -0.278508 -0.132885 0.0109288 -9.26442e-22 0 0 0 0 0 
105 0.209024 0.155695 0.102037 0.0507659 -8.99973e-22 0 0 0 0 0 
106 -0.162939 -0.0113405 0.0692724 0.0499209 -9.52912e-22 0 0 0 0 0 
107 0.21065 0.155558 0.102017 0.0507681 -9.66147e-22 0 0 0 0 0 
108 -0.15289 -0.206637 -0.305866 -0.341451 -9.52912e-22 0 0 0 0 0 
109 0.154939 0.148192 0.102407 0.0509929 -9.66147e-22 0 0 0 0 0 
110 0.21065 0.155559 0.102017 0.050768 -1.05879e-21 0 0 0 0 0 
111 0.211315 0.155666 0.10202 0.0507687 -8.73503e-22 0 0 0 0 0 
112 0.0735829 0.123597 0.0993902 0.0509058 -9.92617e-22 0 0 0 0 0 
113 0.187332 0.154035 0.10199 0.0507202 -1.07203e-21 0 0 0 0 0 
114 -0.171251 0.00241534 0.0741981 0.0504749 -8.47033e-22 0 0 0 0 0 
115 -0.263069 -0.332566 -0.15678 0.0116859 -9.39677e-22 0 0 0 0 0 
116 0.210814 0.155574 0.102017 0.0507681 -9.92617e-22 0 0 0 0 0 
117 -0.18191 -0.238512 -0.344666 -0.385237 -8.60268e-22 0 0 0 0 0 
118 0.210678 0.15556 0.102017 0.050768 -8.20563e-22 0 0 0 0 0 
119 0.210403 0.156095 0.102083 0.0507638 -9.79382e-22 0 0 0 0 0 
120 0.211851 0.155949 0.102046 0.0507694 -1.07203e-21 0 0 0 0 0 
121 0.211104 0.155621 0.102019 0.0507683 -9.52912e-22 0 0 0 0 0 
122 -0.00474427 0.0958043 0.0959942 0.0511884 -8.86738e-22 0 0 0 0 0 
123 -0.287299 -0.165139 -0.00590753 0.0414336 -1.04556e-21 0 0 0 0 0 
124 0.210723 0.155563 0.102017 0.050768 -1.04556e-21 0 0 0 0 0 
125 -0.208917 -0.31844 -0.371693 -0.160147 -1.00585e-21 0 0 0 0 0 
126 0.201662 0.156108 0.102248 0.0507537 -9.52912e-22 0 0 0 0 0 
127 0.0216687 0.112177 0.102144 0.051969 -1.11173e-21 0 0 0 0 0 
128 0.211522 0.155768 0.102036 0.0507682 -9.66147e-22 0 0 0 0 0 
129 0.212193 0.156105 0.102079 0.0507687 -9.92617e-22 0 0 0 0 0 
130 0.18862 0.156823 0.103339 0.0508325 -9.26442e-22 0 0 0 0 0 
131 -0.315844 -0.165327 0.0105855 0.0451822 -1.07203e-21 0 0 0 0 0 
132 0.131039 0.148012 0.104322 0.0512343 -8.60268e-22 0 0 0 0 0 
133 0.210722 0.155566 0.102017 0.050768 -9.66147e-22 0 0 0 0 0 
134 -0.143956 0.0215024 0.0853706 0.0522484 -8.73503e-22 0 0 0 0 0 
135 -0.236406 -0.314693 -0.402848 -0.372051 -9.66147e-22 0 0 0 0 0 
136 0.212278 0.156747 0.102204 0.0507692 -1.01909e-21 0 0 0 0 0 
137 0.211055 0.155617 0.102017 0.0507677 -7.67624e-22 0 0 0 0 0 
138 0.20728 0.157465 0.102532 0.0507737 -1.07203e-21 0 0 0 0 0 
139 -0.367006 -0.339871 -0.139922 0.0151301 -9.39677e-22 0 0 0 0 0 
140 0.210793 0.155574 0.102017 0.050768 -1.11173e-21 0 0 0 0 0 
141 -0.301924 -0.419002 -0.406576 -0.153965 -8.07328e-22 0 0 0 0 0 
142 -0.216197 -0.0123365 0.0683506 0.0486166 -8.60268e-22 0 0 0 0 0 
143 0.211892 0.155997 0.102045 0.0507645 -9.39677e-22 0 0 0 0 0 
144 0.0784767 0.131495 0.100966 0.0508708 -1.05879e-21 0 0 0 0 0 
145 0.211201 0.155627 0.102006 0.0507665 -9.13207e-22 0 0 0 0 0 
146 0.205897 0.156853 0.102348 0.0507571 -9.66147e-22 0 0 0 0 0 
147 -0.419452 -0.222872 -0.0281561 0.0337885 -1.0985e-21 0 0 0 0 0 
148 -0.0961961 0.0663741 0.0916006 0.0511303 -1.05879e-21 0 0 0 0 0 
149 0.211505 0.156231 0.102062 0.0507584 -5.691e-22 0 0 0 0 0 
150 0.210693 0.155557 0.102016 0.050768 -8.33798e-22 0 0 0 0 0 
151 -0.28408 -0.375839 -0.487856 -0.455102 -1.25731e-21 0 0 0 0 0 
152 0.211292 0.155622 0.102011 0.0507673 -1.33672e-21 0 0 0 0 0 
153 -0.454574 -0.343637 -0.110382 0.00440663 -5.9557e-22 0 0 0 0 0 
154 0.185976 0.155428 0.102829 0.0507851 -1.0985e-21 0 0 0 0 0 
155 0.118836 0.142326 0.102953 0.0511438 -1.07203e-21 0 0 0 0 0 
156 0.210802 0.15556 0.102014 0.0507679 -9.52912e-22 0 0 0 0 0 
157 -0.396073 -0.518446 -0.37905 -0.144263 -6.61744e-22 0 0 0 0 0 
158 0.213175 0.156218 0.102043 0.0507635 -1.32349e-21 0 0 0 0 0 
159 0.212406 0.155836 0.102018 0.0507664 -6.08805e-22 0 0 0 0 0 
160 -0.247463 -0.0190783 0.0785838 0.0538176 -9.52912e-22 0 0 0 0 0 
161 -0.418204 -0.212336 -0.0051978 0.0425318 -9.39677e-22 0 0 0 0 0 
162 -0.0510292 0.0824363 0.0979391 0.0526077 -6.74979e-22 0 0 0 0 0 
163 0.210897 0.155577 0.102016 0.0507679 -9.52912e-22 0 0 0 0 0 
164 0.202546 0.158155 0.102806 0.0507655 -7.27919e-22 0 0 0 0 0 
165 -0.373781 -0.485503 -0.521588 -0.164752 -1.28378e-21 0 0 0 0 0 
166 0.212539 0.157182 0.102238 0.0507627 -7.54389e-22 0 0 0 0 0 
167 0.211431 0.155652 0.102016 0.0507676 -1.34996e-21 0 0 0 0 0 
168 -0.451525 -0.376992 -0.183189 -0.00177822 -1.00585e-21 0 0 0 0 0 
169 0.0253955 0.115496 0.101129 0.0518165 -1.1382e-21 0 0 0 0 0 
170 0.211308 0.15564 0.102017 0.0507678 -6.74979e-22 0 0 0 0 0 
171 0.210711 0.155559 0.102016 0.050768 -9.79382e-22 0 0 0 0 0 
172 -0.533019 -0.426758 -0.165771 -0.00701976 -9.92617e-22 0 0 0 0 0 
173 0.169764 0.156167 0.103952 0.0508309 -1.08526e-21 0 0 0 0 0 
174 -0.373483 -0.445284 -0.566092 -0.595372 -8.60268e-22 0 0 0 0 0 
175 0.212911 0.156568 0.102134 0.0507685 -1.27055e-21 0 0 0 0 0 
176 0.212082 0.155803 0.102025 0.0507675 -9.79382e-22 0 0 0 0 0 
177 0.210837 0.155572 0.102016 0.050768 -8.47033e-22 0 0 0 0 0 
178 -0.456443 -0.173527 0.0165131 0.0455267 -1.00585e-21 0 0 0 0 0 
179 -0.143558 0.0460341 0.0895812 0.0525394 -9.66147e-22 0 0 0 0 0 
180 -0.483761 -0.633454 -0.473691 -0.20134 -1.15144e-21 0 0 0 0 0 
181 0.197095 0.157908 0.10293 0.0508045 -7.27919e-22 0 0 0 0 0 
182 0.211862 0.157387 0.102323 0.0507758 -8.47033e-22 0 0 0 0 0 
183 0.21097 0.155577 0.102014 0.0507679 -1.23084e-21 0 0 0 0 0 
184 0.212339 0.155799 0.102015 0.0507673 -8.07328e-22 0 0 0 0 0 
185 -0.459853 -0.57481 -0.600675 -0.207966 -1.16467e-21 0 0 0 0 0 
186 -0.0592939 0.0831136 0.0963614 0.0516483 -9.66147e-22 0 0 0 0 0 
187 0.211471 0.15563 0.102011 0.0507676 -9.66147e-22 0 0 0 0 0 
188 -0.558187 -0.290766 -0.0241402 0.0433676 -7.14684e-22 0 0 0 0 0 
189 0.213094 0.156374 0.102095 0.0507723 -8.33798e-22 0 0 0 0 0 
190 -0.639704 -0.539213 -0.232433 0.00224842 -7.27919e-22 0 0 0 0 0 
191 0.170139 0.154354 0.102997 0.0508704 -1.0985e-21 0 0 0 0 0 
192 0.0860679 0.135045 0.102116 0.0510182 -1.16467e-21 0 0 0 0 0 
193 0.210743 0.155561 0.102016 0.050768 -8.33798e-22 0 0 0 0 0 
194 -0.454993 -0.53041 -0.654326 -0.648024 -8.47033e-22 0 0 0 0 0 
195 -0.291731 -0.0564275 0.0639669 0.0505781 -8.60268e-22 0 0 0 0 0 
196 0.21173 0.15657 0.102098 0.0507689 -1.11173e-21 0 0 0 0 0 
197 0.201451 0.157074 0.102385 0.0507106 -1.0985e-21 0 0 0 0 0 
198 -0.221497 -0.00974678 0.0693292 0.0488724 -1.15144e-21 0 0 0 0 0 
199 0.211125 0.155595 0.102014 0.0507679 -9.79382e-22 0 0 0 0 0 
200 0.00543848 0.0984177 0.0930696 0.0500646 -7.54389e-22 0 0 0 0 0 
201 -0.64987 -0.610064 -0.264715 -0.00880371 -1.03232e-21 0 0 0 0 0 
202 0.210789 0.155563 0.102016 0.050768 -1.20437e-21 0 0 0 0 0 
203 -0.575165 -0.710009 -0.60759 -0.233385 -9.66147e-22 0 0 0 0 0 
204 0.212706 0.156003 0.102025 0.0507671 -9.52912e-22 0 0 0 0 0 
205 -0.38008 -0.128555 0.0275239 0.0455733 -1.11173e-21 0 0 0 0 0 
206 0.211654 0.155696 0.102016 0.0507678 -9.66147e-22 0 0 0 0 0 
207 0.17612 0.154087 0.102661 0.0507404 -8.20563e-22 0 0 0 0 0 
208 -0.660285 -0.349877 -0.052619 0.0423231 -1.1382e-21 0 0 0 0 0 
209 0.0900769 0.137137 0.102416 0.0509764 -1.07203e-21 0 0 0 0 0 
210 -0.373106 -0.0360831 0.0824738 0.0537879 -8.47033e-22 0 0 0 0 0 
211 0.212855 0.156193 0.102052 0.0507675 -9.52912e-22 0 0 0 0 0 
212 -0.517611 -0.644013 -0.751183 -0.59622 -8.33798e-22 0 0 0 0 0 
213 0.210747 0.155559 0.102016 0.050768 -9.66147e-22 0 0 0 0 0 
214 -0.69285 -0.289623 0.0158066 0.0542793 -1.11173e-21 0 0 0 0 0 
215 -0.0921761 0.0911664 0.103234 0.0527245 -1.04556e-21 0 0 0 0 0 
216 0.211831 0.155832 0.102031 0.0507678 -9.66147e-22 0 0 0 0 0 
217 0.193736 0.156321 0.10255 0.0507968 -1.0985e-21 0 0 0 0 0 
218 0.209903 0.156746 0.102157 0.0507688 -1.01909e-21 0 0 0 0 0 
219 0.211365 0.15568 0.102021 0.0507678 -9.66147e-22 0 0 0 0 0 
220 -0.671764 -0.535078 -0.180192 0.0178524 -8.60268e-22 0 0 0 0 0 
221 0.210904 0.155573 0.102016 0.0507681 -9.92617e-22 0 0 0 0 0 
222 -0.0171868 0.106466 0.0994953 0.0515368 -9.39677e-22 0 0 0 0 0 
223 -0.667407 -0.75551 -0.599201 -0.202394 -1.08526e-21 0 0 0 0 0 
224 0.144992 0.149538 0.102916 0.0509373 -9.92617e-22 0 0 0 0 0 
225 -0.583444 -0.238937 -0.00201352 0.046707 -1.1382e-21 0 0 0 0 0 
226 0.208647 0.156394 0.10216 0.0507718 -8.60268e-22 0 0 0 0 0 
227 0.211533 0.155969 0.102048 0.0507653 -9.66147e-22 0 0 0 0 0 
228 -0.21334 0.017761 0.0820832 0.0517574 -7.67624e-22 0 0 0 0 0 
229 -0.587836 -0.706126 -0.793546 -0.644936 -8.33798e-22 0 0 0 0 0 
230 0.21078 0.155555 0.102015 0.0507681 -8.47033e-22 0 0 0 0 0 
231 0.18227 0.154367 0.102421 0.0507975 -7.14684e-22 0 0 0 0 0 
232 -0.698928 -0.364334 -0.0492841 0.04044 -8.86738e-22 0 0 0 0 0 
233 -0.126357 0.0597278 0.0919481 0.05125 -9.52912e-22 0 0 0 0 0 
234 0.213186 0.156277 0.102062 0.0507595 -9.39677e-22 0 0 0 0 0 
235 0.152947 0.150015 0.10275 0.0509034 -9.66147e-22 0 0 0 0 0 
236 0.210928 0.15555 0.102011 0.0507681 -9.79382e-22 0 0 0 0 0 
237 -0.676205 -0.826224 -0.749862 -0.269295 -9.39677e-22 0 0 0 0 0 
238 -0.366776 -0.0847094 0.0580309 0.0500665 -9.66147e-22 0 0 0 0 0 
239 0.0521782 0.129066 0.102439 0.0512062 -1.25731e-21 0 0 0 0 0 
240 0.211672 0.15565 0.102006 0.0507659 -1.20437e-21 0 0 0 0 0 
241 -0.834773 -0.657357 -0.284229 -0.00636839 -8.20563e-22 0 0 0 0 0 
242 0.214821 0.157681 0.102246 0.0507413 -1.17791e-21 0 0 0 0 0 
243 -0.312429 -0.0198356 0.0796117 0.0523437 -9.92617e-22 0 0 0 0 0 
244 0.203487 0.158601 0.102782 0.0507773 -7.27919e-22 0 0 0 0 0 
245 -0.0330967 0.108275 0.102596 0.05209 -5.55865e-22 0 0 0 0 0 
246 0.210778 0.155545 0.102012 0.050768 -1.16467e-21 0 0 0 0 0 
247 -0.624143 -0.717214 -0.86341 -0.796691 -1.20437e-21 0 0 0 0 0 
248 -0.836776 -0.717914 -0.228968 0.00880351 -9.52912e-22 0 0 0 0 0 
249 -0.610574 -0.284595 -0.00407833 0.0469656 -9.79382e-22 0 0 0 0 0 
250 0.212172 0.155722 0.101998 0.0507633 -5.16161e-22 0 0 0 0 0 
251 0.214476 0.156517 0.102049 0.0507459 -4.49986e-22 0 0 0 0 0 
252 0.0753025 0.143365 0.106032 0.0511844 -7.67624e-22 0 0 0 0 0 
253 0.184763 0.162144 0.104809 0.0511496 -1.17791e-21 0 0 0 0 0 
254 0.211201 0.155577 0.102005 0.0507668 -8.86738e-22 0 0 0 0 0 
255 -0.681606 -0.915989 -0.716892 -0.271056 -9.79382e-22 0 0 0 0 0 
256 -0.622428 -0.180581 0.0451222 0.0525014 -9.79382e-22 0 0 0 0 0 
257 0.211505 0.155619 0.102005 0.0507661 -9.79382e-22 0 0 0 0 0 
258 0.216203 0.157685 0.102288 0.0507203 -1.54848e-21 0 0 0 0 0 
259 -0.701223 -0.751639 -0.893133 -0.371309 -9.66147e-22 0 0 0 0 0 
260 -0.159724 0.0663607 0.0990046 0.0524721 -8.60268e-22 0 0 0 0 0 
261 0.211564 0.1604 0.103034 0.050761 -9.52912e-22 0 0 0 0 0 
262 0.210938 0.155559 0.10201 0.0507675 -9.79382e-22 0 0 0 0 0 
263 -0.702296 -0.754996 -0.871205 -0.973349 -9.66147e-22 0 0 0 0 0 
264 0.212632 0.155766 0.101999 0.0507629 -9.52912e-22 0 0 0 0 0 
265 -0.903298 -0.891645 -0.48032 -0.0540162 -1.25731e-21 0 0 0 0 0 
266 0.214989 0.156431 0.102056 0.0507521 -1.00585e-21 0 0 0 0 0 
267 -0.867766 -0.561123 -0.126002 0.0401463 -7.01449e-22 0 0 0 0 0 
268 0.203987 0.161898 0.103799 0.0508516 -9.66147e-22 0 0 0 0 0 
269 0.211456 0.155604 0.102004 0.0507662 -9.79382e-22 0 0 0 0 0 
270 -0.109426 0.0777999 0.0973081 0.0517154 -1.36319e-21 0 0 0 0 0 
271 -0.724868 -0.991529 -0.786512 -0.369925 -3.17637e-22 0 0 0 0 0 
272 0.217298 0.157294 0.102163 0.0507582 -9.66147e-22 0 0 0 0 0 
273 0.118543 0.151001 0.105638 0.0512415 -9.66147e-22 0 0 0 0 0 
274 0.218382 0.159545 0.102611 0.0507532 -9.66147e-22 0 0 0 0 0 
275 -0.560702 -0.199806 0.0248097 0.0493919 -1.03232e-21 0 0 0 0 0 
276 0.211028 0.155574 0.102011 0.0507674 -5.9557e-22 0 0 0 0 0 
277 -0.755593 -0.83972 -0.885137 -0.313059 -1.57495e-21 0 0 0 0 0 
278 0.211628 0.158981 0.102646 0.050774 -9.66147e-22 0 0 0 0 0 
279 -0.678754 -0.330212 -0.0419442 0.0400162 -9.66147e-22 0 0 0 0 0 
280 0.213835 0.156274 0.102068 0.0507662 -8.47033e-22 0 0 0 0 0 
281 0.21207 0.155751 0.102015 0.0507664 -9.13207e-22 0 0 0 0 0 
282 -0.92133 -0.674139 -0.311485 -0.00960981 -9.52912e-22 0 0 0 0 0 
283 0.111759 0.150157 0.106842 0.05166 -9.79382e-22 0 0 0 0 0 
284 0.210897 0.155567 0.102013 0.0507676 -1.4029e-21 0 0 0 0 0 
285 -0.755203 -0.823242 -0.926215 -0.898475 -5.16161e-22 0 0 0 0 0 
286 0.194348 0.16065 0.104002 0.050923 -9.92617e-22 0 0 0 0 0 
287 0.214758 0.157459 0.102274 0.0507717 -9.79382e-22 0 0 0 0 0 
288 -0.366358 -0.0525667 0.077247 0.0535196 -9.52912e-22 0 0 0 0 0 
289 -0.0617839 0.104955 0.1084 0.0533863 -9.66147e-22 0 0 0 0 0 
290 -0.912543 -0.793743 -0.315667 -0.00908707 -9.66147e-22 0 0 0 0 0 
291 0.21202 0.163191 0.103886 0.0508806 -9.39677e-22 0 0 0 0 0 
292 0.218621 0.159283 0.102585 0.0507857 -9.66147e-22 0 0 0 0 0 
293 0.213057 0.155966 0.102025 0.0507643 -1.04556e-21 0 0 0 0 0 
294 -0.84559 -0.993712 -0.827296 -0.310945 -1.49554e-21 0 0 0 0 0 
295 0.211663 0.155666 0.102009 0.050766 -8.47033e-22 0 0 0 0 0 
296 -0.663636 -0.34788 -0.0422429 0.0416507 -9.79382e-22 0 0 0 0 0 
297 0.216254 0.157166 0.102184 0.0507691 -1.17791e-21 0 0 0 0 0 
298 0.179178 0.165464 0.106857 0.0512793 -9.66147e-22 0 0 0 0 0 
299 0.054465 0.143455 0.110216 0.0524244 -9.79382e-22 0 0 0 0 0 
300 -0.73965 -0.898077 -1.01325 -0.786637 -7.54389e-22 0 0 0 0 0 
301 0.211208 0.155574 0.102005 0.0507668 -1.21761e-21 0 0 0 0 0 
302 0.217586 0.15846 0.102406 0.0507699 -5.16161e-22 0 0 0 0 0 
303 -0.629284 -0.256675 0.00332783 0.0473437 -1.28378e-21 0 0 0 0 0 
304 0.211189 0.163304 0.104131 0.0508985 -7.41154e-22 0 0 0 0 0 
305 -0.186467 0.0432671 0.0979766 0.0538851 -5.29396e-22 0 0 0 0 0 
306 -0.835471 -0.947335 -0.822228 -0.288111 -9.79382e-22 0 0 0 0 0 
307 -0.857706 -0.623192 -0.251968 0.00274652 -3.97047e-22 0 0 0 0 0 
308 0.211789 0.155598 0.101989 0.0507652 -7.14684e-22 0 0 0 0 0 
309 0.214527 0.156357 0.10205 0.0507626 -6.74979e-22 0 0 0 0 0 
310 0.19377 0.163803 0.105948 0.0512607 -1.36319e-21 0 0 0 0 0 
311 -0.134712 0.0738202 0.10665 0.0555507 -1.1382e-21 0 0 0 0 0 
312 -0.766453 -0.866972 -0.999339 -0.847703 -1.20437e-21 0 0 0 0 0 
313 0.0881714 0.146949 0.109208 0.0524939 -1.16467e-21 0 0 0 0 0 
314 0.21133 0.155583 0.102002 0.0507663 -1.20437e-21 0 0 0 0 0 
315 -0.890374 -0.583163 -0.14656 0.0190112 -1.42937e-21 0 0 0 0 0 
316 0.215241 0.156888 0.102153 0.0507664 -1.36319e-21 0 0 0 0 0 
317 0.213588 0.159352 0.102967 0.0508342 -9.52912e-22 0 0 0 0 0 
318 -0.524585 -0.177975 0.0478982 0.0563638 -8.86738e-22 0 0 0 0 0 
319 -0.886662 -1.00673 -0.642806 -0.246882 -4.23516e-22 0 0 0 0 0 
320 0.212684 0.155879 0.102015 0.0507639 -5.82335e-22 0 0 0 0 0 
321 0.0957515 0.14386 0.104036 0.0511712 -7.67624e-22 0 0 0 0 0 
322 0.209831 0.156903 0.102221 0.0507718 -7.14684e-22 0 0 0 0 0 
323 0.193986 0.157783 0.10289 0.0508194 -1.01909e-21 0 0 0 0 0 
324 -0.817545 -0.861264 -0.809389 -0.272906 -1.50878e-21 0 0 0 0 0 
325 -0.409584 -0.0500405 0.0778974 0.0539818 -6.61744e-22 0 0 0 0 0 
326 -0.0446637 0.111484 0.103368 0.051666 -1.20437e-21 0 0 0 0 0 
327 0.211269 0.155519 0.101981 0.0507645 -9.66147e-22 0 0 0 0 0 
328 -0.8191 -0.909019 -0.956152 -0.852521 -5.02926e-22 0 0 0 0 0 
329 0.21207 0.15584 0.101997 0.0507618 -1.48231e-21 0 0 0 0 0 
330 0.210806 0.155504 0.102001 0.050767 -9.66147e-22 0 0 0 0 0 
331 -0.923496 -0.65631 -0.240724 0.0305036 -6.61744e-22 0 0 0 0 0 
332 -0.646486 -0.276855 9.37e-05 0.0540532 -1.25731e-21 0 0 0 0 0 
333 0.191207 0.161657 0.104095 0.0508392 -8.33798e-22 0 0 0 0 0 
334 0.107962 0.152793 0.106389 0.0511261 -7.27919e-22 0 0 0 0 0 
335 0.213638 0.156883 0.102173 0.0507677 -2.38228e-22 0 0 0 0 0 
336 0.212211 0.159833 0.102835 0.0507839 -1.54848e-21 0 0 0 0 0 
337 -0.865371 -0.942072 -0.77807 -0.280585 -1.24408e-21 0 0 0 0 0 
338 -0.330603 -0.0556169 0.0716943 0.0525687 -9.79382e-22 0 0 0 0 0 
339 -0.869089 -0.773326 -0.295629 0.0108196 -1.12497e-21 0 0 0 0 0 
340 0.211139 0.155574 0.102009 0.0507677 -9.66147e-22 0 0 0 0 0 
341 -0.0240324 0.107572 0.104082 0.0518322 -9.66147e-22 0 0 0 0 0 
342 0.212366 0.155898 0.102035 0.0507672 -8.86738e-22 0 0 0 0 0 
343 -0.627451 -0.326204 -0.0311046 0.046896 -9.66147e-22 0 0 0 0 0 
344 -0.814165 -0.900877 -0.95005 -0.735312 -9.66147e-22 0 0 0 0 0 
345 0.21421 0.160783 0.103077 0.050811 -9.39677e-22 0 0 0 0 0 
346 0.21084 0.155538 0.102011 0.0507679 -9.66147e-22 0 0 0 0 0 
347 0.213439 0.15599 0.102025 0.0507665 -1.16467e-21 0 0 0 0 0 
348 0.0844304 0.1473 0.108019 0.0517365 -9.92617e-22 0 0 0 0 0 
349 0.217222 0.157122 0.102117 0.0507633 -9.92617e-22 0 0 0 0 0 
350 -0.535337 -0.166811 0.0458889 0.0554402 -1.24408e-21 0 0 0 0 0 
351 0.201779 0.165215 0.104835 0.0509178 -3.83812e-22 0 0 0 0 0 
352 0.211549 0.155616 0.10201 0.0507676 -7.41154e-22 0 0 0 0 0 
353 -0.872478 -0.876253 -0.631759 -0.200744 -9.79382e-22 0 0 0 0 0 
354 -0.0855629 0.099923 0.108733 0.0537753 -1.24408e-21 0 0 0 0 0 
355 -0.710952 -0.455097 -0.0938439 0.0485918 -4.89691e-22 0 0 0 0 0 
356 0.22422 0.158913 0.102196 0.050737 -9.66147e-22 0 0 0 0 0 
357 0.213053 0.155827 0.102006 0.0507644 -1.62789e-21 0 0 0 0 0 
358 0.226302 0.164062 0.103267 0.0507646 -1.52201e-21 0 0 0 0 0 
359 -0.813557 -0.941851 -0.898758 -0.664621 -1.19114e-21 0 0 0 0 0 
360 0.217633 0.15679 0.102034 0.0507538 -9.66147e-22 0 0 0 0 0 
361 0.0808545 0.151875 0.111965 0.0526835 -7.94093e-22 0 0 0 0 0 
362 -0.489556 -0.145353 0.06243 0.061233 -1.00585e-21 0 0 0 0 0 
363 0.211216 0.155555 0.102004 0.0507671 -6.74979e-22 0 0 0 0 0 
364 0.200713 0.167068 0.106011 0.0511136 -6.74979e-22 0 0 0 0 0 
365 -0.0993385 0.0968815 0.115407 0.0561721 -9.79382e-22 0 0 0 0 0 
366 0.213725 0.155998 0.102001 0.0507616 -9.66147e-22 0 0 0 0 0 
367 -0.774162 -0.873417 -0.850419 -0.299 -8.07328e-22 0 0 0 0 0 
368 0.211073 0.155479 0.101989 0.0507662 -9.79382e-22 0 0 0 0 0 
369 -0.644252 -0.300202 -0.0136375 0.0548537 -1.46907e-21 0 0 0 0 0 
370 -0.876487 -0.631867 -0.279937 0.00942895 -9.52912e-22 0 0 0 0 0 
371 0.20812 0.160473 0.103314 0.050859 -9.79382e-22 0 0 0 0 0 
372 0.214461 0.157001 0.102169 0.0507684 -9.79382e-22 0 0 0 0 0 
373 -0.102301 0.0949621 0.108903 0.0541456 -7.41154e-22 0 0 0 0 0 
374 0.210764 0.155513 0.102005 0.0507674 -7.27919e-22 0 0 0 0 0 
375 -0.752268 -0.82697 -0.955973 -0.931894 -7.67624e-22 0 0 0 0 0 
376 -0.399201 -0.0585884 0.0840168 0.0574591 -7.80858e-22 0 0 0 0 0 
377 0.173901 0.157683 0.104161 0.0510052 -7.94093e-22 0 0 0 0 0 
378 0.212892 0.156185 0.102071 0.0507687 -9.79382e-22 0 0 0 0 0 
379 0.0743273 0.140701 0.105413 0.0514499 -1.1382e-21 0 0 0 0 0 
380 -0.873424 -0.697983 -0.238265 0.00935141 -9.66147e-22 0 0 0 0 0 
381 0.21089 0.15554 0.102009 0.0507676 -1.4029e-21 0 0 0 0 0 
382 0.211452 0.155608 0.102007 0.0507672 -9.66147e-22 0 0 0 0 0 
383 -0.614982 -0.286132 0.00185748 0.0510339 -9.79382e-22 0 0 0 0 0 
384 -0.829574 -0.943481 -0.729917 -0.28857 -9.52912e-22 0 0 0 0 0 
385 0.212841 0.157074 0.102239 0.0507775 -6.2204e-22 0 0 0 0 0 
386 0.205436 0.159008 0.102905 0.0508187 -1.31025e-21 0 0 0 0 0 
387 -0.0288267 0.0980634 0.0976525 0.0508468 -9.52912e-22 0 0 0 0 0 
388 -0.378505 -0.0698072 0.0690862 0.0530941 -9.52912e-22 0 0 0 0 0 
389 0.211924 0.156696 0.102173 0.0507688 -1.53525e-21 0 0 0 0 0 
390 0.195106 0.159917 0.103525 0.0508336 -9.66147e-22 0 0 0 0 0 
391 0.211339 0.155638 0.102013 0.0507674 -1.05879e-21 0 0 0 0 0 
392 0.210709 0.15555 0.102015 0.050768 -9.92617e-22 0 0 0 0 0 
393 -0.718267 -0.876656 -0.936257 -0.676837 -9.79382e-22 0 0 0 0 0 
394 0.212464 0.15597 0.102031 0.0507648 -4.76456e-22 0 0 0 0 0 
395 0.209055 0.158216 0.102543 0.0507728 -3.57342e-22 0 0 0 0 0 
396 0.0156066 0.127283 0.10854 0.0530016 -9.66147e-22 0 0 0 0 0 
397 0.148932 0.157517 0.105926 0.0512322 -9.52912e-22 0 0 0 0 0 
398 0.210859 0.155567 0.102014 0.0507679 -8.20563e-22 0 0 0 0 0 
399 -0.523516 -0.18365 0.0406996 0.0596319 -9.52912e-22 0 0 0 0 0 
400 -0.733593 -0.826336 -0.720884 -0.236009 -9.39677e-22 0 0 0 0 0 
401 0.216209 0.158552 0.10237 0.0507518 -1.31025e-21 0 0 0 0 0 
402 0.215567 0.156633 0.102032 0.0507518 -1.31025e-21 0 0 0 0 0 
403 -0.703985 -0.489707 -0.174998 0.0249512 -9.66147e-22 0 0 0 0 0 
404 -0.216256 0.0408622 0.109744 0.0591681 -9.39677e-22 0 0 0 0 0 
405 0.21114 0.155539 0.102 0.0507666 -9.66147e-22 0 0 0 0 0 
406 0.161011 0.161235 0.106813 0.0513594 -6.88214e-22 0 0 0 0 0 
407 0.206377 0.162106 0.103876 0.050876 -9.66147e-22 0 0 0 0 0 
408 0.214041 0.15614 0.102027 0.050763 -9.66147e-22 0 0 0 0 0 
409 -0.0151255 0.11728 0.110462 0.0540166 -1.20437e-21 0 0 0 0 0 
410 -0.668178 -0.771806 -0.891699 -0.770551 -1.41613e-21 0 0 0 0 0 
411 0.212044 0.155619 0.101987 0.0507645 -4.49986e-22 0 0 0 0 0 
412 0.21079 0.155537 0.10201 0.0507675 -9.52912e-22 0 0 0 0 0 
413 -0.740076 -0.516082 -0.161718 0.00216649 -3.30872e-22 0 0 0 0 0 
414 0.21123 0.155563 0.102003 0.0507666 -2.48816e-21 0 0 0 0 0 
415 0.212266 0.16106 0.103449 0.0508813 -9.66147e-22 0 0 0 0 0 
416 -0.779563 -0.912082 -0.609642 -0.227636 -5.691e-22 0 0 0 0 0 
417 -0.0856806 0.0773655 0.0970106 0.0523557 -9.52912e-22 0 0 0 0 0 
418 0.21573 0.157628 0.102341 0.0507856 -9.66147e-22 0 0 0 0 0 
419 -0.451871 -0.163389 0.0205105 0.0435081 -1.99847e-21 0 0 0 0 0 
420 0.211351 0.15561 0.102013 0.0507674 -7.27919e-22 0 0 0 0 0 
421 0.189415 0.163571 0.10575 0.0511972 -9.66147e-22 0 0 0 0 0 
422 -0.653317 -0.756343 -0.798962 -0.275481 -6.61744e-22 0 0 0 0 0 
423 0.0946683 0.148108 0.108178 0.0520827 -9.79382e-22 0 0 0 0 0 
424 0.21557 0.156928 0.10218 0.050774 -1.58819e-21 0 0 0 0 0 
425 0.212567 0.155825 0.102026 0.0507673 -1.27055e-21 0 0 0 0 0 
426 -0.561399 -0.289152 -0.0340133 0.0396721 -2.64698e-23 0 0 0 0 0 
427 -0.74216 -0.586886 -0.273569 -0.0051566 -1.1382e-21 0 0 0 0 0 
428 -0.632868 -0.723238 -0.847172 -0.801662 -9.52912e-22 0 0 0 0 0 
429 0.210831 0.155556 0.102013 0.0507678 -9.66147e-22 0 0 0 0 0 
430 0.212784 0.162018 0.103568 0.0508732 -9.66147e-22 0 0 0 0 0 
431 0.218088 0.158736 0.102507 0.0507907 -1.03232e-21 0 0 0 0 0 
432 -0.0170077 0.114105 0.107358 0.0529046 -5.55865e-22 0 0 0 0 0 
433 -0.278531 -0.0264733 0.0772564 0.0523818 -4.89691e-22 0 0 0 0 0 
434 0.211773 0.155699 0.102016 0.050767 -3.17637e-22 0 0 0 0 0 
435 -0.709363 -0.634372 -0.255824 -0.00170491 -9.66147e-22 0 0 0 0 0 
436 0.190503 0.16015 0.103998 0.0509276 -9.66147e-22 0 0 0 0 0 
437 0.213901 0.157511 0.102295 0.050774 2.77933e-22 0 0 0 0 0 
438 -0.657416 -0.8022 -0.685859 -0.269912 -8.33798e-22 0 0 0 0 0 
439 0.210971 0.155569 0.102011 0.0507675 -6.88214e-22 0 0 0 0 0 
440 0.0994867 0.144449 0.105887 0.0515844 -2.05141e-21 0 0 0 0 0 
441 0.213031 0.156248 0.10208 0.0507678 -9.66147e-22 0 0 0 0 0 
442 -0.510092 -0.26102 -0.0218613 0.0415878 -2.06464e-21 0 0 0 0 0 
443 0.209557 0.159372 0.102824 0.0508007 -2.10435e-21 0 0 0 0 0 
444 0.0213911 0.114095 0.103003 0.0519052 -7.27919e-22 0 0 0 0 0 
445 -0.54531 -0.680662 -0.806519 -0.652515 -1.41613e-21 0 0 0 0 0 
446 0.210855 0.155566 0.102014 0.0507678 -1.41613e-21 0 0 0 0 0 
447 -0.456493 -0.210764 0.00584315 0.0444275 -7.01449e-22 0 0 0 0 0 
448 0.214299 0.158298 0.102491 0.0507957 -4.76456e-22 0 0 0 0 0 
449 -0.149108 0.0336558 0.0919184 0.0526624 -9.79382e-22 0 0 0 0 0 
450 0.214335 0.156593 0.102129 0.0507721 -3.30872e-22 0 0 0 0 0 
451 0.153552 0.152085 0.104076 0.0511386 -2.51463e-22 0 0 0 0 0 
452 0.202984 0.158546 0.103132 0.0508995 -1.62789e-21 0 0 0 0 0 
453 0.211194 0.155611 0.102016 0.0507677 1.32349e-23 0 0 0 0 0 
454 -0.590985 -0.701693 -0.609928 -0.218994 -1.28378e-21 0 0 0 0 0 