VARIABLES = "Cell" "Mode 0" "Mode 1" "Mode 2" "Mode 3" "Mode 4" "Mode 5" "Mode 6" "Mode 7" "Mode 8" "Mode 9" 
ZONE T = Iteration48
0 0.552225 0.552225 0.552225 0.552225 0.552225 0.552225 0.552225 0.552225 0.552225 0.552225 
1 0.552893 0.552893 0.552893 0.552892 0.552892 0.552892 0.552893 0.552893 0.552893 0.552894 
2 0.546656 0.546656 0.546656 0.546656 0.546656 0.546656 0.546656 0.546656 0.546656 0.546656 
3 0.54776 0.54776 0.54776 0.54776 0.54776 0.547759 0.547759 0.547759 0.547759 0.547759 
4 0.534517 0.534517 0.534517 0.534517 0.534517 0.534517 0.534517 0.534517 0.534517 0.534517 
5 0.544071 0.544072 0.544072 0.544072 0.544071 0.544069 0.544066 0.544062 0.544056 0.544051 
6 0.532117 0.532117 0.532117 0.532116 0.532116 0.532116 0.532116 0.532116 0.532116 0.532116 
7 0.527755 0.527738 0.527723 0.527713 0.527711 0.527721 0.527747 0.527792 0.527857 0.527943 
8 0.542304 0.542308 0.542318 0.542332 0.542353 0.542379 0.542409 0.542441 0.54247 0.54249 
9 0.542878 0.54288 0.542886 0.542896 0.542911 0.542931 0.542954 0.54298 0.543006 0.543028 
10 0.522146 0.522146 0.522146 0.522146 0.522146 0.522146 0.522146 0.522146 0.522146 0.522146 
11 0.524793 0.524793 0.524792 0.524793 0.524793 0.524794 0.524795 0.524797 0.524799 0.524801 
12 0.507016 0.50702 0.507027 0.507036 0.507048 0.507062 0.507078 0.507092 0.507104 0.507108 
13 0.509218 0.509219 0.50922 0.509224 0.50923 0.509237 0.509247 0.509259 0.509271 0.509282 
14 0.520104 0.520104 0.520104 0.520104 0.520104 0.520104 0.520104 0.520103 0.520103 0.520103 
15 0.506579 0.506584 0.506587 0.506589 0.506589 0.506584 0.506575 0.50656 0.50654 0.506513 
16 0.506361 0.506359 0.506358 0.506357 0.506358 0.506361 0.506365 0.506373 0.506383 0.506395 
17 0.504427 0.504427 0.504427 0.504427 0.504427 0.504426 0.504426 0.504426 0.504426 0.504426 
18 0.447688 0.447689 0.447688 0.447686 0.447682 0.447674 0.447664 0.447652 0.447638 0.447624 
19 0.46057 0.460572 0.460573 0.460573 0.460569 0.460563 0.460553 0.460538 0.460521 0.460502 
20 0.498261 0.498261 0.498261 0.498261 0.498261 0.498261 0.498261 0.498261 0.498261 0.498261 
21 0.478185 0.478185 0.478185 0.478185 0.478185 0.478185 0.478184 0.478184 0.478184 0.478184 
22 0.429098 0.429099 0.429098 0.429094 0.429088 0.429078 0.429063 0.429046 0.429028 0.429011 
23 0.475858 0.475858 0.475858 0.475858 0.475858 0.475858 0.475858 0.475857 0.475857 0.475857 
24 0.486762 0.486762 0.486762 0.486762 0.486762 0.486762 0.486762 0.486761 0.486761 0.486761 
25 0.482409 0.482409 0.482409 0.482409 0.482409 0.482409 0.482409 0.482409 0.482409 0.482409 
26 0.451735 0.451738 0.45174 0.451741 0.45174 0.451737 0.45173 0.451721 0.451707 0.45169 
27 0.435013 0.435016 0.435018 0.435017 0.435014 0.435008 0.434999 0.434984 0.434966 0.434945 
28 0.476882 0.476882 0.476882 0.476882 0.476882 0.476882 0.476882 0.476882 0.476882 0.476882 
29 0.446842 0.446842 0.446842 0.446842 0.446841 0.446841 0.446841 0.446841 0.44684 0.44684 
30 0.451014 0.451014 0.451014 0.451014 0.451014 0.451014 0.451014 0.451014 0.451014 0.451014 
31 0.370716 0.370716 0.370716 0.370716 0.370716 0.370717 0.370717 0.370717 0.370718 0.370719 
32 0.418291 0.418291 0.41829 0.41829 0.41829 0.41829 0.418291 0.418293 0.418295 0.418298 
33 0.434655 0.434655 0.434655 0.434655 0.434655 0.434654 0.434654 0.434653 0.434653 0.434652 
34 0.442748 0.442748 0.442748 0.442748 0.442748 0.442748 0.442748 0.442748 0.442748 0.442748 
35 0.379779 0.379779 0.37978 0.37978 0.379779 0.379778 0.379776 0.379773 0.379768 0.379763 
36 0.45181 0.45181 0.45181 0.45181 0.45181 0.45181 0.45181 0.45181 0.45181 0.45181 
37 0.444593 0.444593 0.444593 0.444593 0.444593 0.444593 0.444593 0.444593 0.444593 0.444592 
38 0.324794 0.324794 0.324795 0.324795 0.324796 0.324797 0.324798 0.3248 0.324802 0.324804 
39 0.43584 0.43584 0.43584 0.43584 0.43584 0.43584 0.43584 0.43584 0.43584 0.43584 
40 0.374108 0.374108 0.374108 0.374108 0.374108 0.374108 0.374108 0.374108 0.374108 0.374109 
41 0.347423 0.347423 0.347422 0.347423 0.347424 0.347425 0.347428 0.347432 0.347436 0.347439 
42 0.417281 0.417281 0.417281 0.417281 0.417281 0.417281 0.417281 0.417281 0.41728 0.41728 
43 0.393372 0.393372 0.393372 0.393372 0.393372 0.393372 0.393372 0.393372 0.393372 0.393372 
44 0.377691 0.377691 0.377691 0.377691 0.37769 0.37769 0.37769 0.37769 0.37769 0.37769 
45 0.416813 0.416813 0.416813 0.416813 0.416813 0.416813 0.416813 0.416813 0.416813 0.416813 
46 0.339952 0.339952 0.339953 0.339953 0.339953 0.339953 0.339953 0.339952 0.339952 0.339952 
47 0.358697 0.358697 0.358697 0.358697 0.358697 0.358697 0.358697 0.358696 0.358696 0.358696 
48 0.377054 0.377054 0.377054 0.377054 0.377054 0.377054 0.377054 0.377053 0.377053 0.377053 
49 0.29148 0.29148 0.29148 0.29148 0.29148 0.29148 0.29148 0.29148 0.29148 0.291481 
50 0.261837 0.261837 0.261837 0.261837 0.261837 0.261837 0.261837 0.261837 0.261837 0.261837 
51 0.401396 0.401396 0.401396 0.401396 0.401396 0.401396 0.401396 0.401396 0.401396 0.401396 
52 0.384043 0.384043 0.384043 0.384043 0.384043 0.384043 0.384042 0.384042 0.384042 0.384042 
53 0.246995 0.246995 0.246995 0.246995 0.246995 0.246995 0.246994 0.246994 0.246994 0.246994 
54 0.379859 0.379859 0.379859 0.379859 0.379859 0.379859 0.379859 0.379859 0.379859 0.379859 
55 0.296025 0.296025 0.296025 0.296025 0.296025 0.296025 0.296025 0.296025 0.296025 0.296025 
56 0.347562 0.347562 0.347562 0.347562 0.347562 0.347562 0.347562 0.347562 0.347562 0.347562 
57 0.270466 0.270466 0.270466 0.270466 0.270466 0.270466 0.270465 0.270465 0.270465 0.270464 
58 0.35423 0.35423 0.35423 0.35423 0.35423 0.35423 0.354229 0.354229 0.354229 0.354229 
59 0.296655 0.296655 0.296655 0.296655 0.296655 0.296655 0.296655 0.296654 0.296654 0.296654 
60 0.190935 0.190935 0.190935 0.190935 0.190935 0.190935 0.190934 0.190934 0.190934 0.190935 
61 0.347306 0.347306 0.347306 0.347306 0.347306 0.347306 0.347306 0.347305 0.347305 0.347305 
62 0.307364 0.307364 0.307364 0.307364 0.307364 0.307364 0.307364 0.307363 0.307363 0.307363 
63 0.261606 0.261606 0.261606 0.261606 0.261606 0.261606 0.261606 0.261606 0.261606 0.261606 
64 0.336033 0.336033 0.336033 0.336033 0.336033 0.336033 0.336033 0.336033 0.336033 0.336033 
65 0.215943 0.215943 0.215943 0.215943 0.215942 0.215942 0.215942 0.215942 0.215942 0.215942 
66 0.147652 0.147652 0.147651 0.147651 0.147651 0.147651 0.147651 0.147651 0.147652 0.147652 
67 0.317141 0.317141 0.317141 0.317141 0.317141 0.317141 0.317141 0.31714 0.31714 0.31714 
68 0.281288 0.281288 0.281288 0.281288 0.281288 0.281287 0.281287 0.281287 0.281287 0.281287 
69 0.259295 0.259295 0.259295 0.259295 0.259295 0.259295 0.259295 0.259295 0.259295 0.259295 
70 0.178893 0.178893 0.178893 0.178893 0.178893 0.178893 0.178893 0.178893 0.178893 0.178893 
71 0.313742 0.313742 0.313742 0.313742 0.313742 0.313742 0.313742 0.313741 0.313741 0.313741 
72 0.285223 0.285223 0.285223 0.285223 0.285223 0.285223 0.285223 0.285223 0.285223 0.285222 
73 0.210178 0.210178 0.210177 0.210177 0.210177 0.210177 0.210177 0.210177 0.210177 0.210177 
74 0.307867 0.307867 0.307867 0.307867 0.307866 0.307866 0.307866 0.307866 0.307866 0.307866 
75 0.100727 0.100727 0.100727 0.100727 0.100727 0.100727 0.100727 0.100727 0.100727 0.100728 
76 0.213613 0.213613 0.213613 0.213613 0.213613 0.213613 0.213613 0.213613 0.213613 0.213613 
77 0.237529 0.237529 0.237528 0.237528 0.237528 0.237528 0.237528 0.237528 0.237528 0.237528 
78 0.246943 0.246943 0.246943 0.246943 0.246943 0.246943 0.246943 0.246943 0.246943 0.246942 
79 0.113843 0.113843 0.113843 0.113843 0.113843 0.113842 0.113842 0.113842 0.113842 0.113842 
80 0.172043 0.172043 0.172043 0.172043 0.172043 0.172043 0.172043 0.172042 0.172042 0.172042 
81 0.0759063 0.0759063 0.0759064 0.0759063 0.0759061 0.0759062 0.0759063 0.0759057 0.0759054 0.0759065 
82 0.270869 0.270869 0.270869 0.270869 0.270869 0.270869 0.270869 0.270869 0.270868 0.270868 
83 0.275254 0.275254 0.275254 0.275254 0.275254 0.275254 0.275254 0.275254 0.275254 0.275254 
84 0.176886 0.176886 0.176886 0.176886 0.176886 0.176886 0.176886 0.176886 0.176886 0.176886 
85 0.206225 0.206225 0.206225 0.206225 0.206225 0.206225 0.206225 0.206225 0.206225 0.206225 
86 0.127247 0.127247 0.127247 0.127247 0.127247 0.127247 0.127247 0.127247 0.127247 0.127247 
87 0.226559 0.226559 0.226559 0.226559 0.226559 0.226559 0.226559 0.226559 0.226559 0.226558 
88 0.0945246 0.0945246 0.0945245 0.0945244 0.0945245 0.0945244 0.0945241 0.094524 0.0945244 0.094524 
89 0.235162 0.235162 0.235162 0.235162 0.235162 0.235162 0.235162 0.235162 0.235162 0.235162 
90 0.166342 0.166342 0.166342 0.166342 0.166342 0.166342 0.166342 0.166342 0.166342 0.166342 
91 0.246328 0.246328 0.246328 0.246328 0.246328 0.246328 0.246328 0.246328 0.246328 0.246328 
92 0.142507 0.142507 0.142507 0.142507 0.142507 0.142507 0.142506 0.142506 0.142506 0.142506 
93 0.0191871 0.0191871 0.0191873 0.0191872 0.0191866 0.0191869 0.0191878 0.0191867 0.0191847 0.0191868 
94 0.185095 0.185095 0.185095 0.185095 0.185095 0.185095 0.185095 0.185095 0.185094 0.185094 
95 0.0850956 0.0850956 0.0850956 0.0850955 0.0850954 0.0850953 0.0850954 0.0850953 0.0850949 0.0850949 
96 0.156545 0.156545 0.156545 0.156545 0.156545 0.156545 0.156545 0.156545 0.156545 0.156545 
97 0.0395666 0.0395666 0.0395665 0.0395664 0.0395665 0.0395664 0.0395659 0.039566 0.0395667 0.039566 
98 0.195036 0.195036 0.195036 0.195036 0.195036 0.195036 0.195036 0.195036 0.195036 0.195036 
99 0.0382919 0.0382919 0.0382919 0.0382917 0.0382917 0.0382919 0.0382916 0.038291 0.0382916 0.0382923 
100 0.209799 0.209799 0.209799 0.209798 0.209798 0.209798 0.209798 0.209798 0.209798 0.209798 
101 -0.0142846 -0.0142847 -0.0142845 -0.0142842 -0.0142849 -0.0142855 -0.0142841 -0.0142834 -0.0142868 -0.0142881 
102 0.10009 0.10009 0.10009 0.10009 0.10009 0.10009 0.10009 0.100089 0.100089 0.100089 
103 0.157918 0.157918 0.157918 0.157918 0.157918 0.157918 0.157918 0.157917 0.157917 0.157917 
104 0.183497 0.183497 0.183497 0.183497 0.183497 0.183497 0.183497 0.183496 0.183496 0.183496 
105 0.0718543 0.0718543 0.0718542 0.0718542 0.0718542 0.071854 0.0718539 0.071854 0.0718538 0.0718535 
106 0.160411 0.160411 0.160411 0.160411 0.160411 0.160411 0.160411 0.160411 0.160411 0.160411 
107 -0.00512228 -0.00512243 -0.00512269 -0.00512235 -0.005122 -0.00512303 -0.00512379 -0.00512167 -0.00512082 -0.00512563 
108 0.195348 0.195348 0.195348 0.195348 0.195348 0.195347 0.195347 0.195347 0.195347 0.195347 
109 0.107404 0.107404 0.107404 0.107404 0.107404 0.107403 0.107403 0.107403 0.107403 0.107403 
110 -0.0586323 -0.0586325 -0.0586321 -0.0586319 -0.0586329 -0.0586335 -0.0586312 -0.0586307 -0.0586359 -0.0586368 
111 -0.00361328 -0.00361325 -0.00361324 -0.00361342 -0.00361352 -0.00361326 -0.00361335 -0.00361424 -0.00361411 -0.00361245 
112 0.107828 0.107828 0.107828 0.107828 0.107828 0.107828 0.107828 0.107828 0.107828 0.107828 
113 0.0732571 0.073257 0.073257 0.073257 0.0732569 0.0732569 0.0732567 0.0732566 0.0732565 0.0732566 
114 0.114891 0.114891 0.114891 0.114891 0.114891 0.114891 0.114891 0.114891 0.114891 0.114891 
115 0.142577 0.142577 0.142577 0.142577 0.142577 0.142577 0.142577 0.142577 0.142577 0.142577 
116 -0.0555166 -0.0555165 -0.0555168 -0.055517 -0.0555164 -0.0555163 -0.0555179 -0.0555179 -0.0555147 -0.0555158 
117 0.165519 0.165519 0.165519 0.165519 0.165519 0.165519 0.165519 0.165519 0.165519 0.165519 
118 -0.0982335 -0.0982339 -0.0982338 -0.098233 -0.0982336 -0.0982355 -0.0982341 -0.0982302 -0.0982344 -0.0982425 
119 0.0187563 0.0187563 0.0187563 0.0187562 0.0187562 0.0187561 0.018756 0.0187559 0.0187559 0.0187556 
120 -0.0104741 -0.0104741 -0.0104741 -0.0104741 -0.0104743 -0.0104744 -0.010474 -0.0104744 -0.0104754 -0.0104747 
121 -0.0525162 -0.0525161 -0.0525161 -0.0525165 -0.0525164 -0.0525158 -0.0525163 -0.052518 -0.0525165 -0.0525136 
122 0.0825344 0.0825344 0.0825344 0.0825343 0.0825343 0.0825342 0.0825341 0.082534 0.0825339 0.0825339 
123 0.107741 0.107741 0.107741 0.107741 0.107741 0.107741 0.107741 0.107741 0.107741 0.107741 
124 -0.103141 -0.103141 -0.103141 -0.103141 -0.10314 -0.103142 -0.103143 -0.103139 -0.103137 -0.103146 
125 0.138247 0.138247 0.138247 0.138247 0.138247 0.138247 0.138246 0.138246 0.138246 0.138246 
126 0.025707 0.025707 0.025707 0.0257069 0.0257068 0.0257068 0.0257067 0.0257066 0.0257064 0.0257065 
127 0.0420248 0.0420247 0.0420247 0.0420247 0.0420246 0.0420245 0.0420245 0.0420243 0.0420242 0.0420242 
128 -0.0909794 -0.0909794 -0.0909793 -0.0909794 -0.0909797 -0.0909795 -0.0909791 -0.0909801 -0.0909811 -0.0909788 
129 -0.0620966 -0.0620967 -0.0620967 -0.0620966 -0.0620968 -0.0620971 -0.0620967 -0.0620964 -0.0620978 -0.0620986 
130 -0.00448425 -0.00448427 -0.0044843 -0.00448434 -0.00448439 -0.00448447 -0.00448457 -0.00448464 -0.00448474 -0.00448489 
131 0.0678798 0.0678798 0.0678798 0.0678797 0.0678797 0.0678796 0.0678795 0.0678794 0.0678793 0.0678792 
132 0.00511877 0.00511876 0.00511873 0.00511868 0.00511863 0.00511856 0.00511846 0.00511835 0.00511827 0.00511822 
133 -0.157685 -0.157685 -0.157685 -0.157685 -0.157684 -0.157685 -0.157686 -0.157685 -0.157682 -0.157686 
134 0.0329809 0.0329809 0.0329808 0.0329808 0.0329807 0.0329807 0.0329806 0.0329805 0.0329804 0.0329803 
135 0.10839 0.10839 0.10839 0.10839 0.10839 0.10839 0.10839 0.10839 0.108389 0.108389 
136 -0.0785851 -0.0785851 -0.0785852 -0.0785852 -0.0785852 -0.0785854 -0.0785856 -0.0785851 -0.0785852 -0.0785868 
137 -0.137409 -0.137409 -0.137409 -0.137409 -0.137409 -0.137408 -0.137408 -0.13741 -0.13741 -0.137407 
138 -0.0517266 -0.0517266 -0.0517267 -0.0517267 -0.0517267 -0.0517267 -0.051727 -0.0517272 -0.0517268 -0.0517267 
139 0.060285 0.060285 0.0602849 0.0602849 0.0602848 0.0602848 0.0602847 0.0602846 0.0602845 0.0602844 
140 -0.167874 -0.167874 -0.167874 -0.167874 -0.167874 -0.167873 -0.167875 -0.167876 -0.167873 -0.167871 
141 0.0785403 0.0785403 0.0785402 0.0785402 0.0785401 0.0785401 0.07854 0.0785399 0.0785398 0.0785397 
142 0.00279147 0.00279146 0.00279143 0.00279138 0.00279133 0.00279126 0.00279116 0.00279105 0.00279097 0.00279091 
143 -0.124714 -0.124714 -0.124714 -0.124714 -0.124714 -0.124714 -0.124714 -0.124714 -0.124714 -0.124716 
144 -0.0317537 -0.0317537 -0.0317538 -0.0317538 -0.0317539 -0.0317539 -0.031754 -0.0317541 -0.0317542 -0.0317543 
145 -0.155936 -0.155936 -0.155936 -0.155936 -0.155936 -0.155936 -0.155936 -0.155936 -0.155937 -0.155937 
146 -0.0875062 -0.0875062 -0.0875062 -0.0875063 -0.0875063 -0.0875064 -0.0875064 -0.0875066 -0.0875067 -0.0875066 
147 0.0186031 0.0186031 0.0186031 0.0186031 0.018603 0.0186029 0.0186028 0.0186027 0.0186026 0.0186026 
148 -0.0246015 -0.0246015 -0.0246015 -0.0246016 -0.0246016 -0.0246017 -0.0246018 -0.0246019 -0.024602 -0.024602 
149 -0.128546 -0.128546 -0.128546 -0.128546 -0.128546 -0.128546 -0.128546 -0.128546 -0.128546 -0.128547 
150 -0.225709 -0.225709 -0.225709 -0.225709 -0.225709 -0.225709 -0.225709 -0.22571 -0.225709 -0.225707 
151 0.046845 0.046845 0.0468449 0.0468449 0.0468448 0.0468448 0.0468447 0.0468446 0.0468445 0.0468444 
152 -0.187966 -0.187966 -0.187966 -0.187966 -0.187966 -0.187966 -0.187966 -0.187967 -0.187967 -0.187967 
153 0.00167714 0.00167712 0.0016771 0.00167705 0.00167699 0.00167692 0.00167683 0.00167672 0.00167663 0.00167657 
154 -0.100123 -0.100123 -0.100123 -0.100123 -0.100123 -0.100123 -0.100123 -0.100124 -0.100124 -0.100124 
155 -0.0740922 -0.0740922 -0.0740922 -0.0740922 -0.0740923 -0.0740924 -0.0740925 -0.0740926 -0.0740926 -0.0740927 
156 -0.227553 -0.227553 -0.227553 -0.227553 -0.227553 -0.227553 -0.227553 -0.227553 -0.227554 -0.227552 
157 0.0136299 0.0136298 0.0136298 0.0136298 0.0136297 0.0136296 0.0136295 0.0136294 0.0136293 0.0136293 
158 -0.17151 -0.17151 -0.17151 -0.17151 -0.17151 -0.17151 -0.17151 -0.17151 -0.17151 -0.17151 
159 -0.200285 -0.200285 -0.200285 -0.200285 -0.200285 -0.200285 -0.200285 -0.200285 -0.200285 -0.200287 
160 -0.0541044 -0.0541044 -0.0541044 -0.0541045 -0.0541045 -0.0541046 -0.0541047 -0.0541048 -0.0541049 -0.054105 
161 -0.0425177 -0.0425178 -0.0425178 -0.0425178 -0.0425179 -0.042518 -0.0425181 -0.0425182 -0.0425183 -0.0425183 
162 -0.0884111 -0.0884111 -0.0884111 -0.0884112 -0.0884112 -0.0884113 -0.0884114 -0.0884115 -0.0884116 -0.0884117 
163 -0.259743 -0.259743 -0.259743 -0.259743 -0.259743 -0.259743 -0.259743 -0.259743 -0.259743 -0.259744 
164 -0.151354 -0.151354 -0.151354 -0.151354 -0.151354 -0.151354 -0.151355 -0.151355 -0.151355 -0.151355 
165 -0.0164726 -0.0164726 -0.0164726 -0.0164727 -0.0164727 -0.0164728 -0.0164729 -0.016473 -0.0164731 -0.0164731 
166 -0.182394 -0.182394 -0.182394 -0.182394 -0.182394 -0.182394 -0.182394 -0.182394 -0.182394 -0.182394 
167 -0.23784 -0.23784 -0.23784 -0.23784 -0.237841 -0.237841 -0.237841 -0.237841 -0.237841 -0.237842 
168 -0.0495482 -0.0495482 -0.0495482 -0.0495483 -0.0495483 -0.0495484 -0.0495485 -0.0495486 -0.0495487 -0.0495487 
169 -0.132622 -0.132622 -0.132622 -0.132622 -0.132622 -0.132622 -0.132622 -0.132622 -0.132623 -0.132623 
170 -0.26384 -0.26384 -0.26384 -0.26384 -0.26384 -0.26384 -0.263841 -0.263841 -0.263841 -0.263841 
171 -0.301457 -0.301457 -0.301457 -0.301457 -0.301457 -0.301457 -0.301458 -0.301458 -0.301458 -0.301457 
172 -0.0774126 -0.0774126 -0.0774127 -0.0774127 -0.0774128 -0.0774128 -0.0774129 -0.0774131 -0.0774131 -0.0774132 
173 -0.170737 -0.170737 -0.170737 -0.170737 -0.170737 -0.170737 -0.170737 -0.170737 -0.170737 -0.170737 
174 -0.0337201 -0.0337201 -0.0337202 -0.0337202 -0.0337203 -0.0337203 -0.0337204 -0.0337205 -0.0337206 -0.0337207 
175 -0.226789 -0.226789 -0.226789 -0.226789 -0.226789 -0.226789 -0.226789 -0.226789 -0.22679 -0.22679 
176 -0.258742 -0.258742 -0.258742 -0.258742 -0.258742 -0.258742 -0.258742 -0.258743 -0.258743 -0.258743 
177 -0.30546 -0.30546 -0.30546 -0.30546 -0.30546 -0.30546 -0.30546 -0.30546 -0.305461 -0.30546 
178 -0.114385 -0.114385 -0.114385 -0.114385 -0.114385 -0.114385 -0.114385 -0.114385 -0.114385 -0.114385 
179 -0.143049 -0.143049 -0.143049 -0.143049 -0.143049 -0.143049 -0.143049 -0.143049 -0.143049 -0.143049 
180 -0.0712461 -0.0712462 -0.0712462 -0.0712462 -0.0712463 -0.0712464 -0.0712465 -0.0712466 -0.0712467 -0.0712467 
181 -0.21548 -0.21548 -0.21548 -0.21548 -0.21548 -0.21548 -0.21548 -0.215481 -0.215481 -0.215481 
182 -0.241006 -0.241006 -0.241006 -0.241006 -0.241006 -0.241006 -0.241006 -0.241006 -0.241007 -0.241007 
183 -0.326588 -0.326588 -0.326588 -0.326588 -0.326588 -0.326588 -0.326587 -0.326588 -0.326589 -0.326589 
184 -0.293993 -0.293993 -0.293993 -0.293993 -0.293993 -0.293993 -0.293993 -0.293993 -0.293993 -0.293994 
185 -0.101929 -0.101929 -0.101929 -0.101929 -0.101929 -0.101929 -0.101929 -0.101929 -0.101929 -0.101929 
186 -0.184771 -0.184771 -0.184771 -0.184771 -0.184771 -0.184771 -0.184771 -0.184771 -0.184771 -0.184771 
187 -0.319056 -0.319056 -0.319056 -0.319056 -0.319056 -0.319056 -0.319056 -0.319056 -0.319057 -0.319058 
188 -0.145743 -0.145743 -0.145743 -0.145743 -0.145743 -0.145743 -0.145743 -0.145744 -0.145744 -0.145744 
189 -0.28221 -0.28221 -0.28221 -0.28221 -0.28221 -0.28221 -0.28221 -0.28221 -0.28221 -0.28221 
190 -0.138807 -0.138807 -0.138807 -0.138807 -0.138808 -0.138808 -0.138808 -0.138808 -0.138808 -0.138808 
191 -0.234072 -0.234072 -0.234072 -0.234072 -0.234072 -0.234072 -0.234072 -0.234072 -0.234072 -0.234072 
192 -0.217749 -0.217749 -0.217749 -0.217749 -0.217749 -0.217749 -0.21775 -0.21775 -0.21775 -0.21775 
193 -0.356014 -0.356014 -0.356014 -0.356014 -0.356014 -0.356014 -0.356014 -0.356015 -0.356015 -0.356015 
194 -0.114941 -0.114941 -0.114941 -0.114941 -0.114941 -0.114941 -0.114942 -0.114942 -0.114942 -0.114942 
195 -0.18116 -0.18116 -0.18116 -0.18116 -0.18116 -0.18116 -0.18116 -0.18116 -0.18116 -0.18116 
196 -0.299971 -0.299971 -0.299971 -0.299971 -0.299971 -0.299971 -0.299972 -0.299972 -0.299972 -0.299972 
197 -0.276415 -0.276415 -0.276415 -0.276415 -0.276415 -0.276415 -0.276416 -0.276416 -0.276416 -0.276416 
198 -0.212967 -0.212967 -0.212967 -0.212968 -0.212968 -0.212968 -0.212968 -0.212968 -0.212968 -0.212968 
199 -0.347406 -0.347406 -0.347406 -0.347406 -0.347406 -0.347406 -0.347406 -0.347406 -0.347406 -0.347407 
200 -0.238489 -0.238489 -0.238489 -0.238489 -0.238489 -0.238489 -0.238489 -0.238489 -0.238489 -0.238489 
201 -0.17594 -0.17594 -0.17594 -0.17594 -0.17594 -0.17594 -0.17594 -0.175941 -0.175941 -0.175941 
202 -0.367431 -0.367431 -0.367431 -0.367431 -0.367431 -0.367431 -0.367431 -0.367431 -0.367432 -0.367433 
203 -0.163227 -0.163227 -0.163227 -0.163227 -0.163227 -0.163227 -0.163227 -0.163227 -0.163227 -0.163227 
204 -0.327273 -0.327273 -0.327273 -0.327273 -0.327273 -0.327273 -0.327273 -0.327273 -0.327273 -0.327273 
205 -0.216944 -0.216944 -0.216944 -0.216944 -0.216944 -0.216944 -0.216944 -0.216944 -0.216944 -0.216944 
206 -0.347612 -0.347612 -0.347612 -0.347612 -0.347612 -0.347612 -0.347612 -0.347612 -0.347612 -0.347613 
207 -0.290466 -0.290466 -0.290466 -0.290466 -0.290466 -0.290466 -0.290466 -0.290467 -0.290467 -0.290467 
208 -0.203967 -0.203967 -0.203967 -0.203967 -0.203968 -0.203968 -0.203968 -0.203968 -0.203968 -0.203968 
209 -0.268772 -0.268772 -0.268772 -0.268772 -0.268772 -0.268772 -0.268772 -0.268772 -0.268772 -0.268772 
210 -0.249091 -0.249091 -0.249091 -0.249091 -0.249091 -0.249091 -0.249091 -0.249092 -0.249092 -0.249092 
211 -0.342767 -0.342767 -0.342767 -0.342767 -0.342767 -0.342768 -0.342768 -0.342768 -0.342768 -0.342768 
212 -0.190755 -0.190755 -0.190755 -0.190755 -0.190755 -0.190755 -0.190755 -0.190755 -0.190756 -0.190756 
213 -0.391737 -0.391737 -0.391737 -0.391737 -0.391737 -0.391737 -0.391737 -0.391737 -0.391738 -0.391739 
214 -0.236011 -0.236011 -0.236011 -0.236011 -0.236012 -0.236012 -0.236012 -0.236012 -0.236012 -0.236012 
215 -0.275162 -0.275162 -0.275162 -0.275162 -0.275162 -0.275162 -0.275162 -0.275162 -0.275162 -0.275162 
216 -0.362408 -0.362408 -0.362408 -0.362408 -0.362408 -0.362408 -0.362408 -0.362408 -0.362408 -0.362408 
217 -0.322796 -0.322796 -0.322796 -0.322796 -0.322796 -0.322796 -0.322796 -0.322796 -0.322796 -0.322796 
218 -0.344925 -0.344925 -0.344925 -0.344925 -0.344925 -0.344925 -0.344925 -0.344926 -0.344926 -0.344926 
219 -0.384639 -0.384639 -0.384639 -0.384639 -0.384639 -0.384639 -0.38464 -0.384639 -0.384639 -0.384639 
220 -0.252451 -0.252451 -0.252451 -0.252451 -0.252452 -0.252452 -0.252452 -0.252452 -0.252452 -0.252452 
221 -0.398742 -0.398742 -0.398742 -0.398742 -0.398743 -0.398743 -0.398743 -0.398742 -0.398742 -0.398744 
222 -0.304771 -0.304771 -0.304771 -0.304771 -0.304771 -0.304771 -0.304771 -0.304771 -0.304771 -0.304771 
223 -0.230111 -0.230111 -0.230111 -0.230111 -0.230111 -0.230111 -0.230111 -0.230111 -0.230111 -0.230112 
224 -0.329795 -0.329795 -0.329795 -0.329795 -0.329795 -0.329795 -0.329796 -0.329796 -0.329796 -0.329796 
225 -0.287582 -0.287582 -0.287582 -0.287582 -0.287582 -0.287582 -0.287582 -0.287582 -0.287582 -0.287582 
226 -0.368329 -0.368329 -0.368329 -0.368329 -0.368329 -0.368329 -0.368329 -0.368329 -0.368329 -0.368329 
227 -0.385665 -0.385665 -0.385665 -0.385665 -0.385665 -0.385665 -0.385666 -0.385666 -0.385666 -0.385665 
228 -0.309803 -0.309803 -0.309803 -0.309803 -0.309803 -0.309804 -0.309804 -0.309804 -0.309804 -0.309804 
229 -0.247901 -0.247901 -0.247901 -0.247901 -0.247901 -0.247901 -0.247901 -0.247901 -0.247901 -0.247901 
230 -0.416071 -0.416071 -0.416071 -0.416071 -0.416071 -0.416072 -0.416072 -0.416071 -0.41607 -0.416072 
231 -0.356973 -0.356973 -0.356973 -0.356973 -0.356973 -0.356973 -0.356973 -0.356973 -0.356973 -0.356973 
232 -0.306603 -0.306603 -0.306603 -0.306604 -0.306604 -0.306604 -0.306604 -0.306604 -0.306604 -0.306604 
233 -0.336452 -0.336452 -0.336452 -0.336452 -0.336452 -0.336452 -0.336452 -0.336452 -0.336452 -0.336452 
234 -0.400948 -0.400948 -0.400948 -0.400948 -0.400948 -0.400948 -0.400948 -0.400949 -0.400949 -0.400948 
235 -0.367198 -0.367198 -0.367198 -0.367198 -0.367199 -0.367199 -0.367199 -0.367199 -0.367199 -0.367199 
236 -0.4207 -0.4207 -0.4207 -0.4207 -0.420699 -0.4207 -0.420701 -0.420701 -0.420699 -0.420698 
237 -0.282063 -0.282063 -0.282063 -0.282063 -0.282063 -0.282064 -0.282064 -0.282064 -0.282064 -0.282064 
238 -0.333757 -0.333757 -0.333757 -0.333757 -0.333757 -0.333757 -0.333757 -0.333757 -0.333757 -0.333757 
239 -0.358018 -0.358018 -0.358018 -0.358018 -0.358018 -0.358018 -0.358018 -0.358018 -0.358018 -0.358018 
240 -0.415824 -0.415824 -0.415824 -0.415824 -0.415824 -0.415823 -0.415824 -0.415825 -0.415824 -0.415822 
241 -0.303879 -0.303879 -0.303879 -0.303879 -0.303879 -0.303879 -0.30388 -0.30388 -0.30388 -0.30388 
242 -0.402012 -0.402012 -0.402012 -0.402012 -0.402012 -0.402012 -0.402012 -0.402012 -0.402013 -0.402013 
243 -0.354132 -0.354133 -0.354133 -0.354133 -0.354133 -0.354133 -0.354133 -0.354133 -0.354133 -0.354133 
244 -0.392267 -0.392267 -0.392267 -0.392267 -0.392267 -0.392267 -0.392267 -0.392267 -0.392267 -0.392268 
245 -0.370706 -0.370706 -0.370706 -0.370706 -0.370706 -0.370706 -0.370707 -0.370707 -0.370707 -0.370707 
246 -0.429357 -0.429357 -0.429357 -0.429357 -0.429357 -0.429357 -0.429359 -0.429359 -0.429357 -0.429355 
247 -0.298503 -0.298503 -0.298503 -0.298503 -0.298503 -0.298503 -0.298504 -0.298504 -0.298504 -0.298504 
248 -0.332327 -0.332327 -0.332327 -0.332327 -0.332328 -0.332328 -0.332328 -0.332328 -0.332328 -0.332328 
249 -0.353341 -0.353341 -0.353341 -0.353341 -0.353341 -0.353341 -0.353341 -0.353341 -0.353341 -0.353341 
250 -0.423936 -0.423936 -0.423936 -0.423937 -0.423937 -0.423936 -0.423936 -0.423937 -0.423938 -0.423936 
251 -0.418462 -0.418462 -0.418462 -0.418462 -0.418462 -0.418462 -0.418462 -0.418462 -0.418463 -0.418463 
252 -0.389432 -0.389432 -0.389432 -0.389432 -0.389432 -0.389432 -0.389432 -0.389433 -0.389433 -0.389433 
253 -0.400713 -0.400713 -0.400713 -0.400714 -0.400714 -0.400714 -0.400714 -0.400714 -0.400714 -0.400714 
254 -0.429831 -0.429831 -0.429831 -0.429832 -0.429831 -0.429831 -0.429832 -0.429834 -0.429834 -0.42983 
255 -0.327097 -0.327097 -0.327097 -0.327098 -0.327098 -0.327098 -0.327098 -0.327098 -0.327098 -0.327098 
256 -0.372821 -0.372821 -0.372821 -0.372821 -0.372821 -0.372821 -0.372821 -0.372821 -0.372821 -0.372821 
257 -0.432107 -0.432107 -0.432107 -0.432107 -0.432108 -0.432107 -0.432107 -0.432109 -0.432111 -0.432109 
258 -0.424209 -0.424209 -0.424209 -0.424209 -0.424209 -0.424209 -0.424209 -0.424209 -0.424209 -0.42421 
259 -0.341477 -0.341477 -0.341477 -0.341477 -0.341477 -0.341477 -0.341477 -0.341477 -0.341477 -0.341477 
260 -0.391613 -0.391613 -0.391613 -0.391613 -0.391613 -0.391613 -0.391613 -0.391613 -0.391613 -0.391613 
261 -0.417414 -0.417414 -0.417414 -0.417414 -0.417414 -0.417414 -0.417414 -0.417414 -0.417414 -0.417414 
262 -0.431051 -0.431051 -0.431051 -0.431051 -0.431052 -0.431051 -0.431051 -0.431054 -0.431056 -0.431052 
263 -0.342355 -0.342355 -0.342355 -0.342355 -0.342355 -0.342355 -0.342355 -0.342356 -0.342356 -0.342356 
264 -0.431352 -0.431352 -0.431352 -0.431352 -0.431353 -0.431353 -0.431353 -0.431353 -0.431355 -0.431357 
265 -0.364079 -0.364079 -0.364079 -0.364079 -0.364079 -0.364079 -0.364079 -0.364079 -0.36408 -0.36408 
266 -0.430644 -0.430644 -0.430644 -0.430644 -0.430645 -0.430645 -0.430645 -0.430645 -0.430645 -0.430648 
267 -0.375125 -0.375125 -0.375125 -0.375125 -0.375125 -0.375125 -0.375125 -0.375125 -0.375125 -0.375125 
268 -0.422778 -0.422778 -0.422778 -0.422778 -0.422778 -0.422778 -0.422778 -0.422778 -0.422779 -0.422779 
269 -0.430841 -0.430841 -0.430841 -0.430842 -0.430842 -0.430842 -0.430841 -0.430843 -0.430846 -0.430846 
270 -0.406375 -0.406375 -0.406375 -0.406375 -0.406375 -0.406375 -0.406375 -0.406376 -0.406376 -0.406376 
271 -0.364435 -0.364435 -0.364435 -0.364435 -0.364435 -0.364435 -0.364435 -0.364435 -0.364435 -0.364436 
272 -0.431322 -0.431322 -0.431323 -0.431323 -0.431323 -0.431323 -0.431323 -0.431324 -0.431323 -0.431324 
273 -0.418285 -0.418285 -0.418285 -0.418285 -0.418285 -0.418285 -0.418285 -0.418285 -0.418285 -0.418285 
274 -0.429516 -0.429516 -0.429516 -0.429516 -0.429516 -0.429517 -0.429517 -0.429517 -0.429517 -0.429517 
275 -0.396854 -0.396854 -0.396854 -0.396854 -0.396854 -0.396854 -0.396854 -0.396854 -0.396854 -0.396855 
276 -0.429845 -0.429845 -0.429845 -0.429846 -0.429846 -0.429846 -0.429846 -0.429846 -0.429848 -0.42985 
277 -0.379479 -0.379479 -0.379479 -0.379479 -0.379479 -0.379479 -0.37948 -0.37948 -0.37948 -0.37948 
278 -0.430674 -0.430674 -0.430674 -0.430674 -0.430674 -0.430674 -0.430674 -0.430675 -0.430675 -0.430675 
279 -0.406312 -0.406312 -0.406312 -0.406312 -0.406312 -0.406312 -0.406312 -0.406313 -0.406313 -0.406313 
280 -0.432288 -0.432289 -0.432289 -0.432289 -0.432289 -0.432289 -0.43229 -0.43229 -0.43229 -0.432291 
281 -0.430312 -0.430312 -0.430312 -0.430313 -0.430313 -0.430313 -0.430314 -0.430313 -0.430314 -0.430316 
282 -0.399174 -0.399174 -0.399174 -0.399174 -0.399174 -0.399174 -0.399175 -0.399175 -0.399175 -0.399175 
283 -0.425525 -0.425525 -0.425525 -0.425525 -0.425525 -0.425525 -0.425526 -0.425526 -0.425526 -0.425526 
284 -0.423227 -0.423227 -0.423227 -0.423227 -0.423227 -0.423227 -0.423227 -0.423227 -0.423228 -0.423229 
285 -0.381183 -0.381183 -0.381183 -0.381183 -0.381183 -0.381183 -0.381183 -0.381183 -0.381183 -0.381183 
286 -0.429997 -0.429997 -0.429997 -0.429997 -0.429997 -0.429997 -0.429997 -0.429998 -0.429998 -0.429998 
287 -0.431808 -0.431808 -0.431808 -0.431809 -0.431809 -0.431809 -0.431809 -0.43181 -0.43181 -0.43181 
288 -0.420833 -0.420833 -0.420833 -0.420834 -0.420834 -0.420834 -0.420834 -0.420834 -0.420834 -0.420834 
289 -0.425481 -0.425481 -0.425481 -0.425481 -0.425481 -0.425481 -0.425481 -0.425481 -0.425481 -0.425482 
290 -0.411879 -0.411879 -0.411879 -0.411879 -0.411879 -0.411879 -0.411879 -0.411879 -0.411879 -0.411879 
291 -0.43236 -0.43236 -0.43236 -0.432361 -0.432361 -0.432361 -0.432361 -0.432361 -0.432362 -0.432362 
292 -0.432055 -0.432055 -0.432055 -0.432055 -0.432056 -0.432056 -0.432056 -0.432057 -0.432057 -0.432057 
293 -0.426494 -0.426494 -0.426494 -0.426494 -0.426495 -0.426495 -0.426495 -0.426495 -0.426495 -0.426496 
294 -0.403263 -0.403263 -0.403263 -0.403263 -0.403263 -0.403263 -0.403263 -0.403264 -0.403264 -0.403264 