VARIABLES = "Cell" "Mode 0" "Mode 1" "Mode 2" "Mode 3" "Mode 4" "Mode 5" "Mode 6" "Mode 7" "Mode 8" "Mode 9" 
ZONE T = Iteration52
0 0.552225 0.552225 0.552225 0.552225 0.552225 0.552225 0.552225 0.552225 0.552225 0.552225 
1 0.552893 0.552893 0.552893 0.552893 0.552893 0.552893 0.552893 0.552892 0.552892 0.552892 
2 0.546656 0.546656 0.546656 0.546656 0.546656 0.546656 0.546656 0.546656 0.546656 0.546656 
3 0.54776 0.54776 0.54776 0.54776 0.54776 0.54776 0.54776 0.54776 0.54776 0.547759 
4 0.534517 0.534517 0.534517 0.534517 0.534517 0.534517 0.534517 0.534517 0.534517 0.534517 
5 0.544067 0.544068 0.544069 0.54407 0.544071 0.544072 0.544072 0.544072 0.544071 0.544069 
6 0.532117 0.532117 0.532117 0.532117 0.532117 0.532117 0.532117 0.532116 0.532116 0.532116 
7 0.527807 0.527799 0.527787 0.527772 0.527755 0.527738 0.527723 0.527713 0.527711 0.527721 
8 0.542315 0.54231 0.542306 0.542304 0.542304 0.542308 0.542318 0.542332 0.542353 0.542379 
9 0.542889 0.542885 0.542881 0.542878 0.542878 0.54288 0.542886 0.542896 0.542911 0.542931 
10 0.522146 0.522146 0.522146 0.522146 0.522146 0.522146 0.522146 0.522146 0.522146 0.522146 
11 0.524794 0.524794 0.524793 0.524793 0.524793 0.524793 0.524792 0.524793 0.524793 0.524794 
12 0.507018 0.507016 0.507015 0.507015 0.507016 0.50702 0.507027 0.507036 0.507048 0.507062 
13 0.509224 0.509223 0.509221 0.509219 0.509218 0.509219 0.50922 0.509224 0.50923 0.509237 
14 0.520104 0.520104 0.520104 0.520104 0.520104 0.520104 0.520104 0.520104 0.520104 0.520104 
15 0.506564 0.506566 0.50657 0.506574 0.506579 0.506584 0.506587 0.506589 0.506589 0.506584 
16 0.506368 0.506367 0.506365 0.506363 0.506361 0.506359 0.506358 0.506357 0.506358 0.506361 
17 0.504427 0.504427 0.504427 0.504427 0.504427 0.504427 0.504427 0.504427 0.504427 0.504426 
18 0.447679 0.447682 0.447684 0.447686 0.447688 0.447689 0.447688 0.447686 0.447682 0.447674 
19 0.460558 0.460561 0.460564 0.460567 0.46057 0.460572 0.460573 0.460573 0.460569 0.460563 
20 0.498261 0.498261 0.498261 0.498261 0.498261 0.498261 0.498261 0.498261 0.498261 0.498261 
21 0.478185 0.478185 0.478185 0.478185 0.478185 0.478185 0.478185 0.478185 0.478185 0.478185 
22 0.429087 0.42909 0.429093 0.429096 0.429098 0.429099 0.429098 0.429094 0.429088 0.429078 
23 0.475858 0.475858 0.475858 0.475858 0.475858 0.475858 0.475858 0.475858 0.475858 0.475858 
24 0.486762 0.486762 0.486762 0.486762 0.486762 0.486762 0.486762 0.486762 0.486762 0.486762 
25 0.482409 0.482409 0.482409 0.482409 0.482409 0.482409 0.482409 0.482409 0.482409 0.482409 
26 0.451726 0.451727 0.45173 0.451732 0.451735 0.451738 0.45174 0.451741 0.45174 0.451737 
27 0.435001 0.435004 0.435007 0.43501 0.435013 0.435016 0.435018 0.435017 0.435014 0.435008 
28 0.476882 0.476882 0.476882 0.476882 0.476882 0.476882 0.476882 0.476882 0.476882 0.476882 
29 0.446842 0.446842 0.446842 0.446842 0.446842 0.446842 0.446842 0.446842 0.446841 0.446841 
30 0.451014 0.451014 0.451014 0.451014 0.451014 0.451014 0.451014 0.451014 0.451014 0.451014 
31 0.370716 0.370716 0.370716 0.370716 0.370716 0.370716 0.370716 0.370716 0.370716 0.370717 
32 0.418293 0.418292 0.418292 0.418291 0.418291 0.418291 0.41829 0.41829 0.41829 0.41829 
33 0.434655 0.434655 0.434655 0.434655 0.434655 0.434655 0.434655 0.434655 0.434655 0.434654 
34 0.442748 0.442748 0.442748 0.442748 0.442748 0.442748 0.442748 0.442748 0.442748 0.442748 
35 0.379776 0.379776 0.379777 0.379778 0.379779 0.379779 0.37978 0.37978 0.379779 0.379778 
36 0.45181 0.45181 0.45181 0.45181 0.45181 0.45181 0.45181 0.45181 0.45181 0.45181 
37 0.444593 0.444593 0.444593 0.444593 0.444593 0.444593 0.444593 0.444593 0.444593 0.444593 
38 0.324795 0.324795 0.324795 0.324794 0.324794 0.324794 0.324795 0.324795 0.324796 0.324797 
39 0.43584 0.43584 0.43584 0.43584 0.43584 0.43584 0.43584 0.43584 0.43584 0.43584 
40 0.374109 0.374109 0.374109 0.374109 0.374108 0.374108 0.374108 0.374108 0.374108 0.374108 
41 0.347425 0.347425 0.347424 0.347424 0.347423 0.347423 0.347422 0.347423 0.347424 0.347425 
42 0.417281 0.417281 0.417281 0.417281 0.417281 0.417281 0.417281 0.417281 0.417281 0.417281 
43 0.393372 0.393372 0.393372 0.393373 0.393372 0.393372 0.393372 0.393372 0.393372 0.393372 
44 0.377691 0.377691 0.377691 0.377691 0.377691 0.377691 0.377691 0.377691 0.37769 0.37769 
45 0.416813 0.416813 0.416813 0.416813 0.416813 0.416813 0.416813 0.416813 0.416813 0.416813 
46 0.339952 0.339952 0.339952 0.339952 0.339952 0.339952 0.339953 0.339953 0.339953 0.339953 
47 0.358697 0.358697 0.358697 0.358697 0.358697 0.358697 0.358697 0.358697 0.358697 0.358697 
48 0.377054 0.377054 0.377054 0.377054 0.377054 0.377054 0.377054 0.377054 0.377054 0.377054 
49 0.29148 0.29148 0.29148 0.29148 0.29148 0.29148 0.29148 0.29148 0.29148 0.29148 
50 0.261837 0.261837 0.261837 0.261837 0.261837 0.261837 0.261837 0.261837 0.261837 0.261837 
51 0.401396 0.401396 0.401396 0.401396 0.401396 0.401396 0.401396 0.401396 0.401396 0.401396 
52 0.384043 0.384043 0.384043 0.384043 0.384043 0.384043 0.384043 0.384043 0.384043 0.384043 
53 0.246995 0.246995 0.246995 0.246995 0.246995 0.246995 0.246995 0.246995 0.246995 0.246995 
54 0.379859 0.379859 0.379859 0.379859 0.379859 0.379859 0.379859 0.379859 0.379859 0.379859 
55 0.296025 0.296025 0.296025 0.296025 0.296025 0.296025 0.296025 0.296025 0.296025 0.296025 
56 0.347562 0.347562 0.347562 0.347562 0.347562 0.347562 0.347562 0.347562 0.347562 0.347562 
57 0.270466 0.270466 0.270466 0.270466 0.270466 0.270466 0.270466 0.270466 0.270466 0.270466 
58 0.35423 0.35423 0.35423 0.35423 0.35423 0.35423 0.35423 0.35423 0.35423 0.35423 
59 0.296655 0.296655 0.296655 0.296655 0.296655 0.296655 0.296655 0.296655 0.296655 0.296655 
60 0.190935 0.190935 0.190935 0.190935 0.190935 0.190935 0.190935 0.190935 0.190935 0.190935 
61 0.347306 0.347306 0.347306 0.347306 0.347306 0.347306 0.347306 0.347306 0.347306 0.347306 
62 0.307364 0.307364 0.307364 0.307364 0.307364 0.307364 0.307364 0.307364 0.307364 0.307364 
63 0.261606 0.261606 0.261606 0.261606 0.261606 0.261606 0.261606 0.261606 0.261606 0.261606 
64 0.336033 0.336033 0.336033 0.336033 0.336033 0.336033 0.336033 0.336033 0.336033 0.336033 
65 0.215943 0.215943 0.215943 0.215943 0.215943 0.215943 0.215943 0.215943 0.215942 0.215942 
66 0.147652 0.147652 0.147652 0.147652 0.147652 0.147652 0.147651 0.147651 0.147651 0.147651 
67 0.317141 0.317141 0.317141 0.317141 0.317141 0.317141 0.317141 0.317141 0.317141 0.317141 
68 0.281288 0.281288 0.281288 0.281288 0.281288 0.281288 0.281288 0.281288 0.281288 0.281287 
69 0.259295 0.259295 0.259295 0.259295 0.259295 0.259295 0.259295 0.259295 0.259295 0.259295 
70 0.178893 0.178893 0.178893 0.178893 0.178893 0.178893 0.178893 0.178893 0.178893 0.178893 
71 0.313742 0.313742 0.313742 0.313742 0.313742 0.313742 0.313742 0.313742 0.313742 0.313742 
72 0.285223 0.285223 0.285223 0.285223 0.285223 0.285223 0.285223 0.285223 0.285223 0.285223 
73 0.210178 0.210178 0.210178 0.210178 0.210178 0.210178 0.210177 0.210177 0.210177 0.210177 
74 0.307867 0.307867 0.307867 0.307867 0.307867 0.307867 0.307867 0.307867 0.307866 0.307866 
75 0.100727 0.100727 0.100727 0.100727 0.100727 0.100727 0.100727 0.100727 0.100727 0.100727 
76 0.213613 0.213613 0.213613 0.213613 0.213613 0.213613 0.213613 0.213613 0.213613 0.213613 
77 0.237528 0.237529 0.237529 0.237529 0.237529 0.237529 0.237528 0.237528 0.237528 0.237528 
78 0.246943 0.246943 0.246943 0.246943 0.246943 0.246943 0.246943 0.246943 0.246943 0.246943 
79 0.113843 0.113843 0.113843 0.113843 0.113843 0.113843 0.113843 0.113843 0.113843 0.113842 
80 0.172043 0.172043 0.172043 0.172043 0.172043 0.172043 0.172043 0.172043 0.172043 0.172043 
81 0.0759063 0.0759063 0.0759064 0.0759064 0.0759063 0.0759063 0.0759064 0.0759063 0.0759061 0.0759062 
82 0.270869 0.270869 0.270869 0.270869 0.270869 0.270869 0.270869 0.270869 0.270869 0.270869 
83 0.275254 0.275254 0.275254 0.275254 0.275254 0.275254 0.275254 0.275254 0.275254 0.275254 
84 0.176886 0.176886 0.176886 0.176886 0.176886 0.176886 0.176886 0.176886 0.176886 0.176886 
85 0.206225 0.206225 0.206225 0.206225 0.206225 0.206225 0.206225 0.206225 0.206225 0.206225 
86 0.127247 0.127247 0.127247 0.127247 0.127247 0.127247 0.127247 0.127247 0.127247 0.127247 
87 0.226559 0.226559 0.226559 0.226559 0.226559 0.226559 0.226559 0.226559 0.226559 0.226559 
88 0.0945245 0.0945246 0.0945245 0.0945245 0.0945246 0.0945246 0.0945245 0.0945244 0.0945245 0.0945244 
89 0.235162 0.235162 0.235162 0.235162 0.235162 0.235162 0.235162 0.235162 0.235162 0.235162 
90 0.166342 0.166342 0.166342 0.166342 0.166342 0.166342 0.166342 0.166342 0.166342 0.166342 
91 0.246328 0.246328 0.246328 0.246328 0.246328 0.246328 0.246328 0.246328 0.246328 0.246328 
92 0.142507 0.142507 0.142507 0.142507 0.142507 0.142507 0.142507 0.142507 0.142507 0.142507 
93 0.0191871 0.0191871 0.0191872 0.0191872 0.0191871 0.0191871 0.0191873 0.0191872 0.0191866 0.0191869 
94 0.185095 0.185095 0.185095 0.185095 0.185095 0.185095 0.185095 0.185095 0.185095 0.185095 
95 0.0850956 0.0850956 0.0850956 0.0850956 0.0850956 0.0850956 0.0850956 0.0850955 0.0850954 0.0850953 
96 0.156545 0.156545 0.156545 0.156545 0.156545 0.156545 0.156545 0.156545 0.156545 0.156545 
97 0.0395665 0.0395666 0.0395665 0.0395665 0.0395666 0.0395666 0.0395665 0.0395664 0.0395665 0.0395664 
98 0.195036 0.195036 0.195036 0.195036 0.195036 0.195036 0.195036 0.195036 0.195036 0.195036 
99 0.0382919 0.0382919 0.0382919 0.0382919 0.0382919 0.0382919 0.0382919 0.0382917 0.0382917 0.0382919 
100 0.209799 0.209799 0.209799 0.209799 0.209799 0.209799 0.209799 0.209798 0.209798 0.209798 
101 -0.0142846 -0.0142846 -0.0142846 -0.0142845 -0.0142846 -0.0142847 -0.0142845 -0.0142842 -0.0142849 -0.0142855 
102 0.10009 0.10009 0.10009 0.10009 0.10009 0.10009 0.10009 0.10009 0.10009 0.10009 
103 0.157918 0.157918 0.157918 0.157918 0.157918 0.157918 0.157918 0.157918 0.157918 0.157918 
104 0.183497 0.183497 0.183497 0.183497 0.183497 0.183497 0.183497 0.183497 0.183497 0.183497 
105 0.0718543 0.0718543 0.0718543 0.0718543 0.0718543 0.0718543 0.0718542 0.0718542 0.0718542 0.071854 
106 0.160411 0.160411 0.160411 0.160411 0.160411 0.160411 0.160411 0.160411 0.160411 0.160411 
107 -0.0051224 -0.00512239 -0.00512244 -0.00512239 -0.00512228 -0.00512243 -0.00512269 -0.00512235 -0.005122 -0.00512303 
108 0.195348 0.195348 0.195348 0.195348 0.195348 0.195348 0.195348 0.195348 0.195348 0.195347 
109 0.107404 0.107404 0.107404 0.107404 0.107404 0.107404 0.107404 0.107404 0.107404 0.107403 
110 -0.0586323 -0.0586323 -0.0586323 -0.0586322 -0.0586323 -0.0586325 -0.0586321 -0.0586319 -0.0586329 -0.0586335 
111 -0.00361328 -0.00361327 -0.00361325 -0.00361326 -0.00361328 -0.00361325 -0.00361324 -0.00361342 -0.00361352 -0.00361326 
112 0.107828 0.107828 0.107828 0.107828 0.107828 0.107828 0.107828 0.107828 0.107828 0.107828 
113 0.073257 0.073257 0.0732571 0.0732571 0.0732571 0.073257 0.073257 0.073257 0.0732569 0.0732569 
114 0.114891 0.114891 0.114891 0.114891 0.114891 0.114891 0.114891 0.114891 0.114891 0.114891 
115 0.142577 0.142577 0.142577 0.142577 0.142577 0.142577 0.142577 0.142577 0.142577 0.142577 
116 -0.0555166 -0.0555166 -0.0555166 -0.0555167 -0.0555166 -0.0555165 -0.0555168 -0.055517 -0.0555164 -0.0555163 
117 0.165519 0.165519 0.165519 0.165519 0.165519 0.165519 0.165519 0.165519 0.165519 0.165519 
118 -0.0982336 -0.0982337 -0.0982337 -0.0982335 -0.0982335 -0.0982339 -0.0982338 -0.098233 -0.0982336 -0.0982355 
119 0.0187563 0.0187563 0.0187563 0.0187563 0.0187563 0.0187563 0.0187563 0.0187562 0.0187562 0.0187561 
120 -0.0104741 -0.0104741 -0.0104741 -0.0104741 -0.0104741 -0.0104741 -0.0104741 -0.0104741 -0.0104743 -0.0104744 
121 -0.0525162 -0.0525161 -0.0525161 -0.0525162 -0.0525162 -0.0525161 -0.0525161 -0.0525165 -0.0525164 -0.0525158 
122 0.0825344 0.0825344 0.0825344 0.0825344 0.0825344 0.0825344 0.0825344 0.0825343 0.0825343 0.0825342 
123 0.107741 0.107741 0.107741 0.107741 0.107741 0.107741 0.107741 0.107741 0.107741 0.107741 
124 -0.103141 -0.103141 -0.103141 -0.103141 -0.103141 -0.103141 -0.103141 -0.103141 -0.10314 -0.103142 
125 0.138247 0.138247 0.138247 0.138247 0.138247 0.138247 0.138247 0.138247 0.138247 0.138247 
126 0.025707 0.025707 0.025707 0.025707 0.025707 0.025707 0.025707 0.0257069 0.0257068 0.0257068 
127 0.0420247 0.0420247 0.0420248 0.0420248 0.0420248 0.0420247 0.0420247 0.0420247 0.0420246 0.0420245 
128 -0.0909794 -0.0909794 -0.0909793 -0.0909793 -0.0909794 -0.0909794 -0.0909793 -0.0909794 -0.0909797 -0.0909795 
129 -0.0620967 -0.0620966 -0.0620966 -0.0620966 -0.0620966 -0.0620967 -0.0620967 -0.0620966 -0.0620968 -0.0620971 
130 -0.00448427 -0.00448426 -0.00448425 -0.00448425 -0.00448425 -0.00448427 -0.0044843 -0.00448434 -0.00448439 -0.00448447 
131 0.0678798 0.0678798 0.0678798 0.0678798 0.0678798 0.0678798 0.0678798 0.0678797 0.0678797 0.0678796 
132 0.00511875 0.00511876 0.00511877 0.00511877 0.00511877 0.00511876 0.00511873 0.00511868 0.00511863 0.00511856 
133 -0.157685 -0.157685 -0.157685 -0.157685 -0.157685 -0.157685 -0.157685 -0.157685 -0.157684 -0.157685 
134 0.0329809 0.0329809 0.0329809 0.0329809 0.0329809 0.0329809 0.0329808 0.0329808 0.0329807 0.0329807 
135 0.10839 0.10839 0.10839 0.10839 0.10839 0.10839 0.10839 0.10839 0.10839 0.10839 
136 -0.0785851 -0.0785851 -0.0785851 -0.0785851 -0.0785851 -0.0785851 -0.0785852 -0.0785852 -0.0785852 -0.0785854 
137 -0.137409 -0.137409 -0.137409 -0.137409 -0.137409 -0.137409 -0.137409 -0.137409 -0.137409 -0.137408 
138 -0.0517266 -0.0517266 -0.0517266 -0.0517266 -0.0517266 -0.0517266 -0.0517267 -0.0517267 -0.0517267 -0.0517267 
139 0.0602849 0.060285 0.060285 0.060285 0.060285 0.060285 0.0602849 0.0602849 0.0602848 0.0602848 
140 -0.167874 -0.167874 -0.167874 -0.167874 -0.167874 -0.167874 -0.167874 -0.167874 -0.167874 -0.167873 
141 0.0785403 0.0785403 0.0785403 0.0785403 0.0785403 0.0785403 0.0785402 0.0785402 0.0785401 0.0785401 
142 0.00279145 0.00279146 0.00279147 0.00279147 0.00279147 0.00279146 0.00279143 0.00279138 0.00279133 0.00279126 
143 -0.124714 -0.124714 -0.124714 -0.124714 -0.124714 -0.124714 -0.124714 -0.124714 -0.124714 -0.124714 
144 -0.0317538 -0.0317537 -0.0317537 -0.0317537 -0.0317537 -0.0317537 -0.0317538 -0.0317538 -0.0317539 -0.0317539 
145 -0.155936 -0.155936 -0.155936 -0.155936 -0.155936 -0.155936 -0.155936 -0.155936 -0.155936 -0.155936 
146 -0.0875062 -0.0875062 -0.0875062 -0.0875062 -0.0875062 -0.0875062 -0.0875062 -0.0875063 -0.0875063 -0.0875064 
147 0.0186031 0.0186031 0.0186031 0.0186031 0.0186031 0.0186031 0.0186031 0.0186031 0.018603 0.0186029 
148 -0.0246015 -0.0246015 -0.0246015 -0.0246015 -0.0246015 -0.0246015 -0.0246015 -0.0246016 -0.0246016 -0.0246017 
149 -0.128546 -0.128546 -0.128546 -0.128546 -0.128546 -0.128546 -0.128546 -0.128546 -0.128546 -0.128546 
150 -0.225709 -0.225709 -0.225709 -0.225709 -0.225709 -0.225709 -0.225709 -0.225709 -0.225709 -0.225709 
151 0.046845 0.046845 0.046845 0.046845 0.046845 0.046845 0.0468449 0.0468449 0.0468448 0.0468448 
152 -0.187966 -0.187966 -0.187966 -0.187966 -0.187966 -0.187966 -0.187966 -0.187966 -0.187966 -0.187966 
153 0.00167712 0.00167713 0.00167714 0.00167714 0.00167714 0.00167712 0.0016771 0.00167705 0.00167699 0.00167692 
154 -0.100123 -0.100123 -0.100123 -0.100123 -0.100123 -0.100123 -0.100123 -0.100123 -0.100123 -0.100123 
155 -0.0740922 -0.0740922 -0.0740922 -0.0740921 -0.0740922 -0.0740922 -0.0740922 -0.0740922 -0.0740923 -0.0740924 
156 -0.227553 -0.227553 -0.227552 -0.227552 -0.227553 -0.227553 -0.227553 -0.227553 -0.227553 -0.227553 
157 0.0136298 0.0136298 0.0136299 0.0136299 0.0136299 0.0136298 0.0136298 0.0136298 0.0136297 0.0136296 
158 -0.17151 -0.17151 -0.17151 -0.17151 -0.17151 -0.17151 -0.17151 -0.17151 -0.17151 -0.17151 
159 -0.200285 -0.200285 -0.200285 -0.200285 -0.200285 -0.200285 -0.200285 -0.200285 -0.200285 -0.200285 
160 -0.0541044 -0.0541044 -0.0541044 -0.0541044 -0.0541044 -0.0541044 -0.0541044 -0.0541045 -0.0541045 -0.0541046 
161 -0.0425178 -0.0425178 -0.0425178 -0.0425177 -0.0425177 -0.0425178 -0.0425178 -0.0425178 -0.0425179 -0.042518 
162 -0.0884111 -0.0884111 -0.0884111 -0.0884111 -0.0884111 -0.0884111 -0.0884111 -0.0884112 -0.0884112 -0.0884113 
163 -0.259743 -0.259743 -0.259743 -0.259743 -0.259743 -0.259743 -0.259743 -0.259743 -0.259743 -0.259743 
164 -0.151354 -0.151354 -0.151354 -0.151354 -0.151354 -0.151354 -0.151354 -0.151354 -0.151354 -0.151354 
165 -0.0164726 -0.0164726 -0.0164726 -0.0164726 -0.0164726 -0.0164726 -0.0164726 -0.0164727 -0.0164727 -0.0164728 
166 -0.182394 -0.182394 -0.182394 -0.182394 -0.182394 -0.182394 -0.182394 -0.182394 -0.182394 -0.182394 
167 -0.23784 -0.23784 -0.23784 -0.23784 -0.23784 -0.23784 -0.23784 -0.23784 -0.237841 -0.237841 
168 -0.0495482 -0.0495482 -0.0495482 -0.0495482 -0.0495482 -0.0495482 -0.0495482 -0.0495483 -0.0495483 -0.0495484 
169 -0.132622 -0.132622 -0.132622 -0.132622 -0.132622 -0.132622 -0.132622 -0.132622 -0.132622 -0.132622 
170 -0.26384 -0.26384 -0.26384 -0.26384 -0.26384 -0.26384 -0.26384 -0.26384 -0.26384 -0.26384 
171 -0.301457 -0.301457 -0.301457 -0.301457 -0.301457 -0.301457 -0.301457 -0.301457 -0.301457 -0.301457 
172 -0.0774127 -0.0774126 -0.0774126 -0.0774126 -0.0774126 -0.0774126 -0.0774127 -0.0774127 -0.0774128 -0.0774128 
173 -0.170737 -0.170737 -0.170737 -0.170737 -0.170737 -0.170737 -0.170737 -0.170737 -0.170737 -0.170737 
174 -0.0337201 -0.0337201 -0.0337201 -0.0337201 -0.0337201 -0.0337201 -0.0337202 -0.0337202 -0.0337203 -0.0337203 
175 -0.226789 -0.226789 -0.226789 -0.226789 -0.226789 -0.226789 -0.226789 -0.226789 -0.226789 -0.226789 
176 -0.258742 -0.258742 -0.258742 -0.258742 -0.258742 -0.258742 -0.258742 -0.258742 -0.258742 -0.258742 
177 -0.30546 -0.30546 -0.30546 -0.30546 -0.30546 -0.30546 -0.30546 -0.30546 -0.30546 -0.30546 
178 -0.114385 -0.114385 -0.114385 -0.114385 -0.114385 -0.114385 -0.114385 -0.114385 -0.114385 -0.114385 
179 -0.143049 -0.143049 -0.143049 -0.143049 -0.143049 -0.143049 -0.143049 -0.143049 -0.143049 -0.143049 
180 -0.0712462 -0.0712462 -0.0712462 -0.0712461 -0.0712461 -0.0712462 -0.0712462 -0.0712462 -0.0712463 -0.0712464 
181 -0.21548 -0.21548 -0.21548 -0.21548 -0.21548 -0.21548 -0.21548 -0.21548 -0.21548 -0.21548 
182 -0.241006 -0.241006 -0.241006 -0.241006 -0.241006 -0.241006 -0.241006 -0.241006 -0.241006 -0.241006 
183 -0.326588 -0.326588 -0.326588 -0.326588 -0.326588 -0.326588 -0.326588 -0.326588 -0.326588 -0.326588 
184 -0.293993 -0.293993 -0.293993 -0.293993 -0.293993 -0.293993 -0.293993 -0.293993 -0.293993 -0.293993 
185 -0.101929 -0.101929 -0.101929 -0.101929 -0.101929 -0.101929 -0.101929 -0.101929 -0.101929 -0.101929 
186 -0.184771 -0.184771 -0.184771 -0.184771 -0.184771 -0.184771 -0.184771 -0.184771 -0.184771 -0.184771 
187 -0.319056 -0.319056 -0.319056 -0.319056 -0.319056 -0.319056 -0.319056 -0.319056 -0.319056 -0.319056 
188 -0.145743 -0.145743 -0.145743 -0.145743 -0.145743 -0.145743 -0.145743 -0.145743 -0.145743 -0.145743 
189 -0.28221 -0.28221 -0.28221 -0.28221 -0.28221 -0.28221 -0.28221 -0.28221 -0.28221 -0.28221 
190 -0.138807 -0.138807 -0.138807 -0.138807 -0.138807 -0.138807 -0.138807 -0.138807 -0.138808 -0.138808 
191 -0.234072 -0.234072 -0.234072 -0.234072 -0.234072 -0.234072 -0.234072 -0.234072 -0.234072 -0.234072 
192 -0.217749 -0.217749 -0.217749 -0.217749 -0.217749 -0.217749 -0.217749 -0.217749 -0.217749 -0.217749 
193 -0.356014 -0.356014 -0.356014 -0.356014 -0.356014 -0.356014 -0.356014 -0.356014 -0.356014 -0.356014 
194 -0.114941 -0.114941 -0.114941 -0.114941 -0.114941 -0.114941 -0.114941 -0.114941 -0.114941 -0.114941 
195 -0.18116 -0.18116 -0.18116 -0.18116 -0.18116 -0.18116 -0.18116 -0.18116 -0.18116 -0.18116 
196 -0.299971 -0.299971 -0.299971 -0.299971 -0.299971 -0.299971 -0.299971 -0.299971 -0.299971 -0.299971 
197 -0.276415 -0.276415 -0.276415 -0.276415 -0.276415 -0.276415 -0.276415 -0.276415 -0.276415 -0.276415 
198 -0.212967 -0.212967 -0.212967 -0.212967 -0.212967 -0.212967 -0.212967 -0.212968 -0.212968 -0.212968 
199 -0.347406 -0.347406 -0.347406 -0.347406 -0.347406 -0.347406 -0.347406 -0.347406 -0.347406 -0.347406 
200 -0.238489 -0.238489 -0.238489 -0.238489 -0.238489 -0.238489 -0.238489 -0.238489 -0.238489 -0.238489 
201 -0.17594 -0.17594 -0.17594 -0.17594 -0.17594 -0.17594 -0.17594 -0.17594 -0.17594 -0.17594 
202 -0.367431 -0.367431 -0.367431 -0.367431 -0.367431 -0.367431 -0.367431 -0.367431 -0.367431 -0.367431 
203 -0.163227 -0.163227 -0.163227 -0.163227 -0.163227 -0.163227 -0.163227 -0.163227 -0.163227 -0.163227 
204 -0.327273 -0.327273 -0.327273 -0.327273 -0.327273 -0.327273 -0.327273 -0.327273 -0.327273 -0.327273 
205 -0.216944 -0.216944 -0.216944 -0.216944 -0.216944 -0.216944 -0.216944 -0.216944 -0.216944 -0.216944 
206 -0.347612 -0.347612 -0.347612 -0.347612 -0.347612 -0.347612 -0.347612 -0.347612 -0.347612 -0.347612 
207 -0.290466 -0.290466 -0.290466 -0.290466 -0.290466 -0.290466 -0.290466 -0.290466 -0.290466 -0.290466 
208 -0.203967 -0.203967 -0.203967 -0.203967 -0.203967 -0.203967 -0.203967 -0.203967 -0.203968 -0.203968 
209 -0.268772 -0.268772 -0.268772 -0.268772 -0.268772 -0.268772 -0.268772 -0.268772 -0.268772 -0.268772 
210 -0.249091 -0.249091 -0.249091 -0.249091 -0.249091 -0.249091 -0.249091 -0.249091 -0.249091 -0.249091 
211 -0.342767 -0.342767 -0.342767 -0.342767 -0.342767 -0.342767 -0.342767 -0.342767 -0.342767 -0.342768 
212 -0.190755 -0.190755 -0.190755 -0.190755 -0.190755 -0.190755 -0.190755 -0.190755 -0.190755 -0.190755 
213 -0.391737 -0.391737 -0.391737 -0.391737 -0.391737 -0.391737 -0.391737 -0.391737 -0.391737 -0.391737 
214 -0.236011 -0.236011 -0.236011 -0.236011 -0.236011 -0.236011 -0.236011 -0.236011 -0.236012 -0.236012 
215 -0.275162 -0.275162 -0.275162 -0.275162 -0.275162 -0.275162 -0.275162 -0.275162 -0.275162 -0.275162 
216 -0.362408 -0.362408 -0.362408 -0.362408 -0.362408 -0.362408 -0.362408 -0.362408 -0.362408 -0.362408 
217 -0.322796 -0.322796 -0.322796 -0.322796 -0.322796 -0.322796 -0.322796 -0.322796 -0.322796 -0.322796 
218 -0.344925 -0.344925 -0.344925 -0.344925 -0.344925 -0.344925 -0.344925 -0.344925 -0.344925 -0.344925 
219 -0.384639 -0.384639 -0.384639 -0.384639 -0.384639 -0.384639 -0.384639 -0.384639 -0.384639 -0.384639 
220 -0.252451 -0.252451 -0.252451 -0.252451 -0.252451 -0.252451 -0.252451 -0.252451 -0.252452 -0.252452 
221 -0.398742 -0.398742 -0.398742 -0.398742 -0.398742 -0.398742 -0.398742 -0.398742 -0.398743 -0.398743 
222 -0.304771 -0.304771 -0.304771 -0.304771 -0.304771 -0.304771 -0.304771 -0.304771 -0.304771 -0.304771 
223 -0.230111 -0.230111 -0.230111 -0.230111 -0.230111 -0.230111 -0.230111 -0.230111 -0.230111 -0.230111 
224 -0.329795 -0.329795 -0.329795 -0.329795 -0.329795 -0.329795 -0.329795 -0.329795 -0.329795 -0.329795 
225 -0.287582 -0.287582 -0.287582 -0.287582 -0.287582 -0.287582 -0.287582 -0.287582 -0.287582 -0.287582 
226 -0.368329 -0.368329 -0.368329 -0.368329 -0.368329 -0.368329 -0.368329 -0.368329 -0.368329 -0.368329 
227 -0.385665 -0.385665 -0.385665 -0.385665 -0.385665 -0.385665 -0.385665 -0.385665 -0.385665 -0.385665 
228 -0.309803 -0.309803 -0.309803 -0.309803 -0.309803 -0.309803 -0.309803 -0.309803 -0.309803 -0.309804 
229 -0.247901 -0.247901 -0.247901 -0.247901 -0.247901 -0.247901 -0.247901 -0.247901 -0.247901 -0.247901 
230 -0.416071 -0.416071 -0.416071 -0.416071 -0.416071 -0.416071 -0.416071 -0.416071 -0.416071 -0.416072 
231 -0.356973 -0.356973 -0.356973 -0.356973 -0.356973 -0.356973 -0.356973 -0.356973 -0.356973 -0.356973 
232 -0.306603 -0.306603 -0.306603 -0.306603 -0.306603 -0.306603 -0.306603 -0.306604 -0.306604 -0.306604 
233 -0.336452 -0.336452 -0.336452 -0.336452 -0.336452 -0.336452 -0.336452 -0.336452 -0.336452 -0.336452 
234 -0.400948 -0.400948 -0.400948 -0.400948 -0.400948 -0.400948 -0.400948 -0.400948 -0.400948 -0.400948 
235 -0.367198 -0.367198 -0.367198 -0.367198 -0.367198 -0.367198 -0.367198 -0.367198 -0.367199 -0.367199 
236 -0.4207 -0.4207 -0.4207 -0.4207 -0.4207 -0.4207 -0.4207 -0.4207 -0.420699 -0.4207 
237 -0.282063 -0.282063 -0.282063 -0.282063 -0.282063 -0.282063 -0.282063 -0.282063 -0.282063 -0.282064 
238 -0.333757 -0.333757 -0.333757 -0.333757 -0.333757 -0.333757 -0.333757 -0.333757 -0.333757 -0.333757 
239 -0.358018 -0.358018 -0.358018 -0.358018 -0.358018 -0.358018 -0.358018 -0.358018 -0.358018 -0.358018 
240 -0.415824 -0.415824 -0.415824 -0.415824 -0.415824 -0.415824 -0.415824 -0.415824 -0.415824 -0.415823 
241 -0.303879 -0.303879 -0.303879 -0.303879 -0.303879 -0.303879 -0.303879 -0.303879 -0.303879 -0.303879 
242 -0.402012 -0.402012 -0.402012 -0.402012 -0.402012 -0.402012 -0.402012 -0.402012 -0.402012 -0.402012 
243 -0.354133 -0.354133 -0.354132 -0.354132 -0.354132 -0.354133 -0.354133 -0.354133 -0.354133 -0.354133 
244 -0.392267 -0.392267 -0.392267 -0.392267 -0.392267 -0.392267 -0.392267 -0.392267 -0.392267 -0.392267 
245 -0.370706 -0.370706 -0.370706 -0.370706 -0.370706 -0.370706 -0.370706 -0.370706 -0.370706 -0.370706 
246 -0.429357 -0.429357 -0.429357 -0.429357 -0.429357 -0.429357 -0.429357 -0.429357 -0.429357 -0.429357 
247 -0.298503 -0.298503 -0.298503 -0.298503 -0.298503 -0.298503 -0.298503 -0.298503 -0.298503 -0.298503 
248 -0.332327 -0.332327 -0.332327 -0.332327 -0.332327 -0.332327 -0.332327 -0.332327 -0.332328 -0.332328 
249 -0.353341 -0.353341 -0.353341 -0.353341 -0.353341 -0.353341 -0.353341 -0.353341 -0.353341 -0.353341 
250 -0.423936 -0.423936 -0.423936 -0.423936 -0.423936 -0.423936 -0.423936 -0.423937 -0.423937 -0.423936 
251 -0.418462 -0.418462 -0.418462 -0.418462 -0.418462 -0.418462 -0.418462 -0.418462 -0.418462 -0.418462 
252 -0.389432 -0.389432 -0.389432 -0.389432 -0.389432 -0.389432 -0.389432 -0.389432 -0.389432 -0.389432 
253 -0.400713 -0.400713 -0.400713 -0.400713 -0.400713 -0.400713 -0.400713 -0.400714 -0.400714 -0.400714 
254 -0.429831 -0.429831 -0.429831 -0.429831 -0.429831 -0.429831 -0.429831 -0.429832 -0.429831 -0.429831 
255 -0.327097 -0.327097 -0.327097 -0.327097 -0.327097 -0.327097 -0.327097 -0.327098 -0.327098 -0.327098 
256 -0.372821 -0.372821 -0.372821 -0.372821 -0.372821 -0.372821 -0.372821 -0.372821 -0.372821 -0.372821 
257 -0.432107 -0.432107 -0.432107 -0.432107 -0.432107 -0.432107 -0.432107 -0.432107 -0.432108 -0.432107 
258 -0.424209 -0.424209 -0.424209 -0.424209 -0.424209 -0.424209 -0.424209 -0.424209 -0.424209 -0.424209 
259 -0.341477 -0.341477 -0.341477 -0.341477 -0.341477 -0.341477 -0.341477 -0.341477 -0.341477 -0.341477 
260 -0.391613 -0.391613 -0.391613 -0.391613 -0.391613 -0.391613 -0.391613 -0.391613 -0.391613 -0.391613 
261 -0.417414 -0.417414 -0.417414 -0.417414 -0.417414 -0.417414 -0.417414 -0.417414 -0.417414 -0.417414 
262 -0.43105 -0.43105 -0.43105 -0.431051 -0.431051 -0.431051 -0.431051 -0.431051 -0.431052 -0.431051 
263 -0.342355 -0.342355 -0.342355 -0.342355 -0.342355 -0.342355 -0.342355 -0.342355 -0.342355 -0.342355 
264 -0.431352 -0.431352 -0.431352 -0.431352 -0.431352 -0.431352 -0.431352 -0.431352 -0.431353 -0.431353 
265 -0.364079 -0.364079 -0.364079 -0.364079 -0.364079 -0.364079 -0.364079 -0.364079 -0.364079 -0.364079 
266 -0.430644 -0.430644 -0.430644 -0.430644 -0.430644 -0.430644 -0.430644 -0.430644 -0.430645 -0.430645 
267 -0.375125 -0.375125 -0.375125 -0.375125 -0.375125 -0.375125 -0.375125 -0.375125 -0.375125 -0.375125 
268 -0.422778 -0.422778 -0.422778 -0.422778 -0.422778 -0.422778 -0.422778 -0.422778 -0.422778 -0.422778 
269 -0.430841 -0.430841 -0.430841 -0.430841 -0.430841 -0.430841 -0.430841 -0.430842 -0.430842 -0.430842 
270 -0.406375 -0.406375 -0.406375 -0.406375 -0.406375 -0.406375 -0.406375 -0.406375 -0.406375 -0.406375 
271 -0.364435 -0.364435 -0.364435 -0.364435 -0.364435 -0.364435 -0.364435 -0.364435 -0.364435 -0.364435 
272 -0.431322 -0.431322 -0.431322 -0.431322 -0.431322 -0.431322 -0.431323 -0.431323 -0.431323 -0.431323 
273 -0.418285 -0.418285 -0.418285 -0.418285 -0.418285 -0.418285 -0.418285 -0.418285 -0.418285 -0.418285 
274 -0.429516 -0.429516 -0.429516 -0.429516 -0.429516 -0.429516 -0.429516 -0.429516 -0.429516 -0.429517 
275 -0.396854 -0.396854 -0.396854 -0.396854 -0.396854 -0.396854 -0.396854 -0.396854 -0.396854 -0.396854 
276 -0.429845 -0.429845 -0.429845 -0.429845 -0.429845 -0.429845 -0.429845 -0.429846 -0.429846 -0.429846 
277 -0.379479 -0.379479 -0.379479 -0.379479 -0.379479 -0.379479 -0.379479 -0.379479 -0.379479 -0.379479 
278 -0.430674 -0.430674 -0.430674 -0.430674 -0.430674 -0.430674 -0.430674 -0.430674 -0.430674 -0.430674 
279 -0.406312 -0.406312 -0.406312 -0.406312 -0.406312 -0.406312 -0.406312 -0.406312 -0.406312 -0.406312 
280 -0.432288 -0.432288 -0.432288 -0.432288 -0.432288 -0.432289 -0.432289 -0.432289 -0.432289 -0.432289 
281 -0.430312 -0.430312 -0.430312 -0.430312 -0.430312 -0.430312 -0.430312 -0.430313 -0.430313 -0.430313 
282 -0.399174 -0.399174 -0.399174 -0.399174 -0.399174 -0.399174 -0.399174 -0.399174 -0.399174 -0.399174 
283 -0.425525 -0.425525 -0.425525 -0.425525 -0.425525 -0.425525 -0.425525 -0.425525 -0.425525 -0.425525 
284 -0.423227 -0.423227 -0.423227 -0.423227 -0.423227 -0.423227 -0.423227 -0.423227 -0.423227 -0.423227 
285 -0.381183 -0.381183 -0.381183 -0.381183 -0.381183 -0.381183 -0.381183 -0.381183 -0.381183 -0.381183 
286 -0.429997 -0.429997 -0.429997 -0.429997 -0.429997 -0.429997 -0.429997 -0.429997 -0.429997 -0.429997 
287 -0.431808 -0.431808 -0.431808 -0.431808 -0.431808 -0.431808 -0.431808 -0.431809 -0.431809 -0.431809 
288 -0.420833 -0.420833 -0.420833 -0.420833 -0.420833 -0.420833 -0.420833 -0.420834 -0.420834 -0.420834 
289 -0.425481 -0.425481 -0.425481 -0.425481 -0.425481 -0.425481 -0.425481 -0.425481 -0.425481 -0.425481 
290 -0.411879 -0.411879 -0.411879 -0.411879 -0.411879 -0.411879 -0.411879 -0.411879 -0.411879 -0.411879 
291 -0.43236 -0.43236 -0.43236 -0.43236 -0.43236 -0.43236 -0.43236 -0.432361 -0.432361 -0.432361 
292 -0.432055 -0.432055 -0.432055 -0.432055 -0.432055 -0.432055 -0.432055 -0.432055 -0.432056 -0.432056 
293 -0.426494 -0.426494 -0.426494 -0.426494 -0.426494 -0.426494 -0.426494 -0.426494 -0.426495 -0.426495 
294 -0.403263 -0.403263 -0.403263 -0.403263 -0.403263 -0.403263 -0.403263 -0.403263 -0.403263 -0.403263 