VARIABLES = "Cell" "Mode 0" "Mode 1" "Mode 2" "Mode 3" "Mode 4" "Mode 5" "Mode 6" "Mode 7" "Mode 8" "Mode 9" 
ZONE T = Iteration53
0 0.618452 0.617819 0.617176 0.616539 0.615884 0.614982 0.614085 0.613869 0.614033 0.613799 
1 0.618218 0.617574 0.616918 0.61627 0.615601 0.614687 0.613777 0.613547 0.613696 0.613448 
2 0.59931 0.599298 0.599282 0.599279 0.599262 0.599005 0.598757 0.599194 0.600015 0.600444 
3 0.609287 0.608747 0.608236 0.607769 0.607316 0.60665 0.606018 0.606094 0.606575 0.606685 
4 0.597097 0.597234 0.597346 0.597452 0.59753 0.597353 0.597174 0.597669 0.598539 0.599009 
5 0.591089 0.591276 0.591362 0.591439 0.591509 0.591352 0.591213 0.591765 0.592698 0.593232 
6 0.640809 0.638433 0.636204 0.634129 0.632172 0.630096 0.628143 0.626979 0.626297 0.625314 
7 0.742123 0.734197 0.726774 0.719834 0.713317 0.706965 0.700999 0.696069 0.69185 0.687542 
8 0.591405 0.591522 0.591675 0.591862 0.592042 0.591978 0.591917 0.592533 0.593522 0.594106 
9 0.585801 0.592391 0.595506 0.596303 0.596023 0.595238 0.594507 0.594559 0.595079 0.595269 
10 0.640346 0.627068 0.613865 0.603269 0.596456 0.592774 0.591271 0.591554 0.592677 0.593557 
11 1.02943 0.965131 0.893796 0.812893 0.726267 0.64904 0.597939 0.574721 0.568466 0.569282 
12 2.60153 2.55957 2.52166 2.4835 2.43883 2.42584 2.42509 2.24911 1.28505 0.28054 
13 0.502402 0.501363 0.495602 0.48776 0.490383 0.515138 0.55116 0.577168 0.590014 0.595409 
14 0.754983 0.721402 0.68422 0.646466 0.615129 0.594961 0.585124 0.582356 0.583049 0.584539 
15 0.571978 0.572711 0.573393 0.574045 0.574644 0.574966 0.575263 0.576215 0.577521 0.578408 
16 0.57097 0.571152 0.57132 0.571494 0.571648 0.571555 0.571467 0.57206 0.573032 0.573608 
17 0.570069 0.57026 0.570446 0.570636 0.570803 0.570721 0.570641 0.571239 0.572217 0.572799 
18 0.578791 0.578857 0.578917 0.578989 0.579047 0.578864 0.57869 0.579202 0.580097 0.5806 
19 1.21112 1.2074 1.20369 1.19158 1.17679 1.23374 1.2794 0.685865 -0.0451941 -0.165804 
20 0.577689 0.577769 0.577845 0.577934 0.578009 0.577843 0.577687 0.578217 0.579131 0.579654 
21 0.577861 0.577921 0.577975 0.578041 0.578092 0.577902 0.57772 0.578224 0.579111 0.579605 
22 0.520601 0.524103 0.527373 0.530446 0.533311 0.535754 0.538039 0.540855 0.54391 0.546439 
23 0.523039 0.534953 0.548047 0.560407 0.569632 0.574728 0.576848 0.577971 0.57873 0.578842 
24 0.336994 0.379177 0.425253 0.474688 0.522086 0.556426 0.574951 0.582935 0.585428 0.58508 
25 0.56813 0.567542 0.567377 0.567481 0.567672 0.567636 0.567593 0.568217 0.569208 0.569793 
26 0.568603 0.568954 0.569148 0.569273 0.569354 0.56919 0.569036 0.569569 0.570484 0.571007 
27 -0.263764 -0.235452 -0.206863 -0.184904 -0.169219 -0.117039 0.064476 0.381429 0.518929 0.586461 
28 0.889315 0.876003 0.863351 0.856997 0.849631 0.804779 0.70011 0.606064 0.564472 0.546593 
29 0.641615 0.641835 0.644048 0.629805 0.644557 0.794713 0.691603 0.485714 0.495998 0.516711 
30 -0.0903768 -0.0818923 -0.06731 -0.0529947 -0.0579017 -0.00237878 0.203356 0.265708 0.612259 0.898998 
31 0.540951 0.541639 0.542326 0.543031 0.543726 0.544184 0.544656 0.545818 0.547368 0.54853 
32 0.550192 0.550444 0.550681 0.550924 0.551145 0.551119 0.551096 0.551753 0.552789 0.553428 
33 0.542188 0.542977 0.543721 0.54444 0.54511 0.545506 0.545882 0.546915 0.548306 0.549279 
34 0.493374 0.499622 0.5081 0.518237 0.525881 0.529657 0.530672 0.530994 0.531448 0.531631 
35 0.538679 0.538704 0.539606 0.540719 0.541595 0.541921 0.542041 0.542735 0.543762 0.544364 
36 0.542015 0.54222 0.542424 0.542644 0.542852 0.542821 0.5428 0.543466 0.544517 0.545176 
37 0.537874 0.535903 0.534968 0.534731 0.534829 0.534818 0.53484 0.535534 0.536592 0.537235 
38 0.478125 0.478682 0.480152 0.48058 0.482854 0.491396 0.503071 0.512167 0.517149 0.518623 
39 0.547018 0.547091 0.547161 0.547247 0.547322 0.547159 0.547008 0.547546 0.54847 0.549004 
40 0.534677 0.534736 0.534797 0.534871 0.534928 0.534741 0.534561 0.535066 0.535956 0.536455 
41 0.532993 0.533035 0.533082 0.533144 0.533189 0.532991 0.532802 0.533298 0.534179 0.53467 
42 0.541433 0.541322 0.541221 0.541146 0.541071 0.540767 0.540483 0.540897 0.541704 0.54213 
43 0.526099 0.521848 0.517548 0.514012 0.511928 0.510927 0.510722 0.511484 0.512644 0.513373 
44 0.431367 0.430826 0.432819 0.445822 0.466766 0.479938 0.483394 0.467294 0.473236 0.541378 
45 0.517851 0.517864 0.517877 0.517906 0.517926 0.517708 0.517503 0.517986 0.518856 0.519337 
46 0.534301 0.534519 0.534734 0.534962 0.535179 0.535157 0.535146 0.535822 0.536884 0.537556 
47 0.375688 0.377655 0.377955 0.380929 0.396364 0.42567 0.456714 0.470843 0.46326 0.462489 
48 0.50712 0.507086 0.507051 0.507035 0.507011 0.50675 0.506504 0.506947 0.507778 0.50822 
49 0.526065 0.526224 0.526378 0.526546 0.526701 0.526616 0.526542 0.527155 0.528153 0.52876 
50 0.501543 0.501526 0.501543 0.501592 0.501632 0.501432 0.501242 0.501737 0.502619 0.503111 
51 0.496186 0.496225 0.496262 0.496311 0.496345 0.496137 0.495939 0.496426 0.497301 0.497786 
52 0.525806 0.525758 0.525703 0.52566 0.525601 0.525302 0.525011 0.525404 0.526181 0.526566 
53 0.445801 0.445301 0.448105 0.455547 0.46079 0.457819 0.447002 0.438452 0.459226 0.475562 
54 0.474475 0.475046 0.47543 0.475654 0.475733 0.475498 0.475244 0.475672 0.476489 0.476924 
55 0.511055 0.511008 0.510961 0.510932 0.510893 0.510618 0.510356 0.510784 0.511599 0.512026 
56 0.498439 0.498383 0.498326 0.498285 0.498234 0.497945 0.49767 0.498083 0.498883 0.499294 
57 0.502345 0.502372 0.502394 0.502428 0.502447 0.502226 0.502014 0.502487 0.503345 0.50381 
58 0.468442 0.468605 0.468669 0.468704 0.468715 0.468488 0.468278 0.468759 0.469628 0.470107 
59 0.414548 0.415097 0.415713 0.417404 0.420916 0.425234 0.428238 0.429196 0.429728 0.431094 
60 0.497535 0.49754 0.497539 0.49755 0.497547 0.497303 0.497067 0.497517 0.498351 0.498793 
61 0.432796 0.433451 0.434114 0.434752 0.435232 0.435245 0.435084 0.435569 0.436481 0.437005 
62 0.489065 0.489086 0.489101 0.489128 0.489139 0.488909 0.488687 0.48915 0.489996 0.490449 
63 0.486169 0.486194 0.486214 0.486247 0.486266 0.486043 0.485831 0.486304 0.487162 0.487627 
64 0.462862 0.462901 0.462936 0.462984 0.463021 0.462817 0.462625 0.463118 0.463998 0.464485 
65 0.432403 0.432032 0.430755 0.427277 0.421029 0.413489 0.408006 0.406057 0.405566 0.405157 
66 0.415426 0.415797 0.415785 0.415125 0.413918 0.412558 0.411848 0.412287 0.413003 0.413134 
67 0.447846 0.447894 0.447936 0.447991 0.448032 0.447833 0.447645 0.448142 0.449024 0.449514 
68 0.461147 0.461197 0.461243 0.461302 0.461347 0.461152 0.460967 0.461467 0.462353 0.462846 
69 0.475704 0.475849 0.475989 0.476142 0.476282 0.476182 0.476092 0.476688 0.47767 0.478259 
70 0.379531 0.379151 0.377651 0.374484 0.370286 0.366591 0.364938 0.36408 0.362631 0.362593 
71 0.416909 0.416991 0.417058 0.417128 0.417177 0.41698 0.416792 0.417292 0.418176 0.418668 
72 0.45617 0.456234 0.456292 0.456362 0.456417 0.456232 0.456055 0.456564 0.457456 0.457957 
73 0.431178 0.431224 0.431266 0.431321 0.431362 0.431164 0.430976 0.431474 0.432356 0.432847 
74 0.437548 0.437612 0.43767 0.43774 0.437796 0.437611 0.437436 0.437946 0.43884 0.439342 
75 0.394458 0.394404 0.394362 0.394352 0.394358 0.394154 0.393973 0.394477 0.395362 0.395858 
76 0.455195 0.455262 0.455324 0.455399 0.45546 0.45528 0.45511 0.455625 0.456525 0.457033 
77 0.439761 0.439836 0.439906 0.43999 0.440059 0.439888 0.439727 0.440251 0.441161 0.441678 
78 0.399375 0.399407 0.399442 0.399498 0.399544 0.399352 0.399169 0.399672 0.400559 0.401055 
79 0.361681 0.361582 0.361527 0.361532 0.361555 0.361358 0.361179 0.361685 0.362575 0.363081 
80 0.453531 0.453613 0.45369 0.45378 0.453856 0.453691 0.453536 0.454067 0.454982 0.455506 
81 0.323396 0.323468 0.323793 0.324369 0.324944 0.325058 0.32504 0.325787 0.326886 0.327384 
82 0.442385 0.442458 0.442526 0.442607 0.442674 0.4425 0.442336 0.442858 0.443764 0.444278 
83 0.361147 0.361009 0.36089 0.360831 0.360819 0.360613 0.360432 0.360932 0.361816 0.362317 
84 0.349877 0.349778 0.349705 0.349692 0.349711 0.349513 0.349328 0.349827 0.350716 0.35122 
85 0.326699 0.326611 0.326514 0.326474 0.326489 0.326287 0.326054 0.326496 0.327385 0.327934 
86 0.399597 0.399648 0.399693 0.399751 0.399795 0.399598 0.39941 0.399908 0.400791 0.401281 
87 0.435763 0.435806 0.435844 0.435895 0.435931 0.435727 0.435531 0.436022 0.436896 0.437379 
88 0.27906 0.279202 0.279502 0.279943 0.28035 0.28037 0.280326 0.28101 0.282022 0.282492 
89 0.381143 0.381193 0.381238 0.381295 0.381339 0.381142 0.380954 0.381452 0.382334 0.382824 
90 0.407911 0.407965 0.408013 0.408074 0.408121 0.407927 0.407742 0.408243 0.409129 0.409622 
91 0.420413 0.420464 0.420509 0.420567 0.420611 0.420414 0.420227 0.420725 0.421608 0.422098 
92 0.343339 0.343391 0.343439 0.343501 0.343549 0.343357 0.343175 0.343677 0.344565 0.345061 
93 0.289206 0.289326 0.28942 0.289503 0.289557 0.289367 0.289188 0.289691 0.290571 0.291055 
94 0.386624 0.386677 0.386724 0.386785 0.386831 0.386636 0.386451 0.386952 0.387837 0.388329 
95 0.371768 0.371821 0.371868 0.371927 0.371973 0.371777 0.371592 0.372091 0.372976 0.373468 
96 0.32155 0.321574 0.321595 0.321637 0.321678 0.321485 0.321303 0.321805 0.322691 0.323187 
97 0.309924 0.310015 0.310094 0.310177 0.310235 0.310045 0.309861 0.310363 0.311249 0.31174 
98 0.399622 0.399674 0.399719 0.399778 0.399822 0.399625 0.399438 0.399937 0.400819 0.40131 
99 0.410019 0.410069 0.410115 0.410173 0.410216 0.410019 0.409832 0.41033 0.411212 0.411703 
100 0.284254 0.284347 0.284426 0.284507 0.284563 0.284372 0.284189 0.284692 0.28558 0.286074 
101 0.404936 0.404986 0.405031 0.405089 0.405132 0.404935 0.404747 0.405244 0.406126 0.406616 
102 0.33851 0.338566 0.338617 0.338679 0.338728 0.338536 0.338353 0.338855 0.339742 0.340237 
103 0.244406 0.24448 0.244516 0.244543 0.244561 0.244357 0.244164 0.244647 0.245521 0.246017 
104 0.251649 0.251742 0.251827 0.251914 0.251976 0.251794 0.251625 0.252138 0.253024 0.253514 
105 0.303546 0.303628 0.303696 0.303768 0.30382 0.303629 0.303447 0.303951 0.304837 0.305331 
106 0.374256 0.374312 0.374364 0.374428 0.374478 0.374287 0.374106 0.37461 0.375498 0.375995 
107 0.356481 0.35654 0.356594 0.35666 0.356712 0.356524 0.356345 0.356852 0.357743 0.358242 
108 0.378805 0.378861 0.378911 0.378974 0.379022 0.37883 0.378648 0.379151 0.380038 0.380533 
109 0.199855 0.199913 0.199951 0.199994 0.200028 0.19983 0.199641 0.200135 0.201019 0.201518 
110 0.245385 0.245447 0.245503 0.24557 0.245622 0.245433 0.245253 0.245758 0.246647 0.247144 
111 0.387509 0.387569 0.387624 0.387692 0.387745 0.387558 0.38738 0.387888 0.388781 0.389281 
112 0.223981 0.224022 0.224062 0.224121 0.224169 0.223977 0.223795 0.2243 0.225193 0.225696 
113 0.329492 0.329551 0.329604 0.32967 0.329722 0.329534 0.329354 0.329861 0.330752 0.33125 
114 0.297245 0.297304 0.297359 0.297426 0.297479 0.297292 0.297114 0.297622 0.298514 0.299014 
115 0.254685 0.254745 0.2548 0.254865 0.254917 0.254727 0.254547 0.255052 0.255941 0.256438 
116 0.323698 0.323756 0.32381 0.323876 0.323928 0.323739 0.32356 0.324066 0.324957 0.325455 
117 0.227314 0.227368 0.227418 0.227482 0.227533 0.227343 0.227163 0.227669 0.228559 0.229057 
118 0.340832 0.340891 0.340944 0.341009 0.341061 0.340872 0.340693 0.341199 0.342089 0.342587 
119 0.186468 0.18652 0.186568 0.18663 0.186679 0.186488 0.186306 0.18681 0.1877 0.188199 
120 0.356274 0.356333 0.356388 0.356455 0.356508 0.35632 0.356142 0.356649 0.357541 0.358041 
121 0.297321 0.29738 0.297433 0.297499 0.29755 0.297361 0.297182 0.297688 0.298578 0.299077 
122 0.330906 0.330964 0.331018 0.331083 0.331135 0.330947 0.330768 0.331274 0.332165 0.332663 
123 0.168308 0.168365 0.16842 0.168489 0.168542 0.168353 0.168174 0.168682 0.169572 0.170071 
124 0.36039 0.360449 0.360502 0.360568 0.360621 0.360432 0.360253 0.360759 0.36165 0.362149 
125 0.236893 0.23695 0.237003 0.237068 0.237119 0.236929 0.236749 0.237255 0.238145 0.238643 
126 0.188299 0.188355 0.188407 0.188471 0.188522 0.188331 0.188151 0.188656 0.189545 0.190043 
127 0.257636 0.257694 0.257746 0.257812 0.257863 0.257674 0.257494 0.257999 0.258889 0.259387 
128 0.29924 0.299298 0.29935 0.299415 0.299466 0.299277 0.299097 0.299602 0.300492 0.30099 
129 0.331953 0.332012 0.332066 0.332132 0.332184 0.331996 0.331817 0.332323 0.333214 0.333713 
130 0.320042 0.320101 0.320155 0.320221 0.320273 0.320084 0.319905 0.320412 0.321303 0.321802 
131 0.166219 0.166277 0.16633 0.166395 0.166446 0.166256 0.166076 0.166581 0.16747 0.167967 
132 0.124172 0.12423 0.124284 0.124351 0.124403 0.124214 0.124035 0.124541 0.125431 0.12593 
133 0.338064 0.33812 0.338171 0.338234 0.338283 0.338091 0.337909 0.338413 0.3393 0.339796 
134 0.250215 0.250272 0.250324 0.250389 0.25044 0.25025 0.250069 0.250574 0.251464 0.251961 
135 0.159031 0.159088 0.15914 0.159205 0.159256 0.159065 0.158885 0.15939 0.160279 0.160776 
136 0.228434 0.228491 0.228542 0.228606 0.228656 0.228466 0.228284 0.228789 0.229677 0.230174 
137 0.270296 0.270353 0.270405 0.270469 0.270519 0.270329 0.270148 0.270653 0.271542 0.272039 
138 0.0930079 0.0930654 0.0931173 0.0931819 0.0932328 0.0930431 0.0928627 0.0933671 0.094256 0.0947543 
139 0.302977 0.303034 0.303086 0.303151 0.303202 0.303012 0.302831 0.303336 0.304225 0.304723 
140 0.28727 0.287327 0.287379 0.287444 0.287494 0.287303 0.287123 0.287627 0.288516 0.289013 
141 0.188856 0.188913 0.188965 0.18903 0.189081 0.18889 0.18871 0.189215 0.190104 0.190601 
142 0.125245 0.125303 0.125355 0.12542 0.125471 0.125281 0.125101 0.125606 0.126495 0.126993 
143 0.312611 0.312668 0.31272 0.312785 0.312835 0.312645 0.312464 0.312969 0.313858 0.314355 
144 0.154845 0.154902 0.154954 0.155019 0.155069 0.154879 0.154699 0.155204 0.156093 0.156591 
145 0.237372 0.237429 0.237481 0.237546 0.237596 0.237406 0.237225 0.23773 0.238619 0.239116 
146 0.0947856 0.0948433 0.0948958 0.0949607 0.0950116 0.094822 0.0946421 0.0951472 0.0960362 0.0965333 
147 0.295199 0.295256 0.295308 0.295372 0.295423 0.295233 0.295052 0.295557 0.296446 0.296944 
148 0.118356 0.118413 0.118466 0.118531 0.118582 0.118392 0.118211 0.118717 0.119606 0.120103 
149 0.276832 0.276889 0.27694 0.277005 0.277055 0.276865 0.276684 0.277188 0.278077 0.278574 
150 0.260944 0.261001 0.261053 0.261118 0.261168 0.260978 0.260797 0.261302 0.262191 0.262688 
151 0.186921 0.186978 0.18703 0.187095 0.187145 0.186955 0.186774 0.187279 0.188168 0.188666 
152 0.0473992 0.0474567 0.047509 0.0475738 0.0476248 0.0474352 0.0472551 0.0477597 0.0486484 0.0491471 
153 0.291256 0.291314 0.291366 0.291432 0.291483 0.291293 0.291113 0.291618 0.292508 0.293006 
154 0.052204 0.0522616 0.0523141 0.052379 0.05243 0.0522402 0.0520603 0.0525658 0.053455 0.0539517 
155 0.263252 0.26331 0.263362 0.263427 0.263478 0.263289 0.263109 0.263614 0.264504 0.265001 
156 0.0843553 0.084413 0.0844655 0.0845305 0.0845817 0.0843919 0.0842117 0.0847172 0.0856072 0.0861049 
157 0.104536 0.104593 0.104646 0.10471 0.104762 0.104572 0.104391 0.104896 0.105786 0.106284 
158 0.242918 0.242976 0.243028 0.243093 0.243144 0.242954 0.242774 0.243279 0.244169 0.244666 
159 0.025518 0.0255757 0.0256281 0.0256931 0.0257441 0.0255545 0.0253746 0.0258799 0.0267688 0.0272659 
160 0.195538 0.195595 0.195648 0.195713 0.195764 0.195574 0.195394 0.195899 0.196789 0.197287 
161 0.230514 0.230572 0.230624 0.230689 0.230741 0.230551 0.230371 0.230876 0.231766 0.232264 
162 0.150912 0.150969 0.151022 0.151087 0.151138 0.150948 0.150768 0.151274 0.152164 0.152661 
163 0.263784 0.263842 0.263894 0.263959 0.26401 0.263821 0.263641 0.264146 0.265036 0.265533 
164 0.235991 0.236049 0.236101 0.236166 0.236218 0.236028 0.235848 0.236353 0.237243 0.237741 
165 0.0489038 0.0489615 0.0490139 0.0490789 0.0491299 0.04894 0.0487598 0.0492653 0.0501554 0.0506525 
166 0.155821 0.155878 0.155931 0.155996 0.156047 0.155857 0.155677 0.156182 0.157072 0.157569 
167 -0.0114804 -0.0114229 -0.0113708 -0.0113058 -0.0112544 -0.0114444 -0.0116253 -0.0111199 -0.0102292 -0.00973232 
168 0.244241 0.244298 0.24435 0.244415 0.244466 0.244276 0.244095 0.2446 0.245489 0.245987 
169 0.197032 0.197089 0.197142 0.197207 0.197258 0.197068 0.196888 0.197393 0.198283 0.198781 
170 0.0806723 0.08073 0.0807824 0.0808473 0.0808984 0.0807087 0.0805285 0.0810336 0.0819232 0.0824211 
171 0.102151 0.102209 0.102261 0.102326 0.102377 0.102187 0.102007 0.102512 0.103402 0.103899 
172 0.179957 0.180015 0.180067 0.180132 0.180183 0.179994 0.179813 0.180319 0.181208 0.181706 
173 0.0192975 0.0193551 0.0194074 0.0194722 0.0195232 0.0193333 0.019153 0.019658 0.0205478 0.0210458 
174 0.211128 0.211186 0.211238 0.211303 0.211354 0.211164 0.210984 0.211489 0.212378 0.212876 
175 0.217825 0.217882 0.217935 0.217999 0.21805 0.21786 0.21768 0.218185 0.219075 0.219572 
176 -0.0313291 -0.0312715 -0.0312194 -0.0311547 -0.0311034 -0.0312928 -0.0314739 -0.0309696 -0.0300785 -0.0295798 
177 0.119059 0.119116 0.119169 0.119234 0.119285 0.119095 0.118914 0.11942 0.120309 0.120807 
178 0.0366059 0.0366635 0.0367158 0.0367807 0.0368317 0.0366418 0.0364615 0.0369666 0.0378562 0.0383539 
179 0.173999 0.174056 0.174109 0.174173 0.174224 0.174034 0.173854 0.174359 0.175249 0.175746 
180 0.0170501 0.0171077 0.01716 0.0172249 0.0172758 0.017086 0.0169058 0.0174109 0.0183003 0.0187982 
181 -0.0153695 -0.0153118 -0.0152595 -0.0151949 -0.0151439 -0.0153333 -0.0155135 -0.0150094 -0.0141198 -0.0136204 
182 0.18652 0.186577 0.18663 0.186694 0.186745 0.186556 0.186375 0.18688 0.18777 0.188268 
183 0.205391 0.205449 0.205501 0.205566 0.205617 0.205427 0.205247 0.205752 0.206641 0.207139 
184 0.0725339 0.0725914 0.0726437 0.0727085 0.0727595 0.0725696 0.0723892 0.0728943 0.073784 0.0742816 
185 0.141366 0.141424 0.141476 0.141541 0.141592 0.141402 0.141222 0.141727 0.142616 0.143114 
186 0.0850023 0.0850599 0.0851122 0.0851771 0.085228 0.0850382 0.0848579 0.085363 0.0862526 0.0867503 
187 0.118927 0.118984 0.119037 0.119101 0.119152 0.118963 0.118782 0.119287 0.120177 0.120675 
188 -0.0165208 -0.0164633 -0.0164109 -0.016346 -0.0162951 -0.0164852 -0.0166653 -0.0161599 -0.0152704 -0.0147732 
189 0.197908 0.197965 0.198018 0.198083 0.198134 0.197944 0.197764 0.198269 0.199159 0.199656 
190 0.168026 0.168084 0.168136 0.168201 0.168252 0.168062 0.167882 0.168387 0.169277 0.169774 
191 -0.0721951 -0.0721374 -0.072085 -0.0720206 -0.0719698 -0.0721588 -0.0723385 -0.071835 -0.0709468 -0.0704467 
192 -0.0373559 -0.0372983 -0.0372458 -0.037181 -0.0371304 -0.0373201 -0.0374997 -0.0369948 -0.0361066 -0.0356087 
193 0.0157366 0.0157942 0.0158465 0.0159114 0.0159623 0.0157724 0.0155922 0.0160973 0.0169869 0.0174844 
194 0.177157 0.177215 0.177267 0.177332 0.177383 0.177193 0.177013 0.177518 0.178408 0.178905 
195 0.137542 0.1376 0.137652 0.137717 0.137768 0.137578 0.137398 0.137903 0.138793 0.13929 
196 0.120332 0.12039 0.120442 0.120507 0.120558 0.120368 0.120188 0.120693 0.121583 0.12208 
197 0.0312031 0.0312606 0.031313 0.0313778 0.0314288 0.0312389 0.0310586 0.0315637 0.0324534 0.032951 
198 -0.0646926 -0.0646351 -0.0645825 -0.0645174 -0.0644672 -0.0646577 -0.0648364 -0.0643296 -0.0634428 -0.0629495 
199 0.0853502 0.0854077 0.08546 0.0855249 0.0855759 0.085386 0.0852057 0.0857108 0.0866005 0.0870981 
200 0.166185 0.166242 0.166295 0.16636 0.166411 0.166221 0.166041 0.166546 0.167435 0.167933 
201 -0.0842735 -0.0842159 -0.0841632 -0.0840986 -0.0840484 -0.0842379 -0.0844165 -0.0839118 -0.0830254 -0.0825275 
202 0.0531175 0.053175 0.0532273 0.0532922 0.0533432 0.0531533 0.052973 0.0534781 0.0543678 0.0548654 
203 0.175293 0.17535 0.175403 0.175468 0.175519 0.175329 0.175148 0.175654 0.176543 0.177041 
204 -0.0341797 -0.0341221 -0.0340699 -0.0340049 -0.0339539 -0.0341439 -0.0343243 -0.033819 -0.0329291 -0.0324317 
205 0.138531 0.138589 0.138641 0.138706 0.138757 0.138567 0.138387 0.138892 0.139782 0.140279 
206 0.119635 0.119692 0.119745 0.11981 0.119861 0.119671 0.11949 0.119996 0.120885 0.121383 
207 -0.0200211 -0.0199636 -0.0199113 -0.0198464 -0.0197955 -0.0199853 -0.0201656 -0.0196606 -0.0187709 -0.0182731 
208 0.0875799 0.0876375 0.0876898 0.0877547 0.0878056 0.0876158 0.0874355 0.0879406 0.0888302 0.0893279 
209 0.0542353 0.0542928 0.0543451 0.05441 0.054461 0.0542711 0.0540908 0.0545959 0.0554856 0.0559832 
210 0.0196008 0.0196583 0.0197106 0.0197755 0.0198265 0.0196366 0.0194563 0.0199614 0.0208511 0.0213488 
211 -0.0860096 -0.0859522 -0.0858999 -0.0858346 -0.0857836 -0.0859743 -0.086155 -0.085648 -0.0847571 -0.0842629 
212 -0.117013 -0.116956 -0.116904 -0.116839 -0.116788 -0.116978 -0.117159 -0.116654 -0.115762 -0.115262 
213 0.144095 0.144152 0.144205 0.14427 0.144321 0.144131 0.14395 0.144456 0.145345 0.145843 
214 0.160165 0.160222 0.160274 0.160339 0.16039 0.1602 0.16002 0.160525 0.161415 0.161912 
215 -0.0748763 -0.0748187 -0.0747666 -0.0747016 -0.0746503 -0.0748403 -0.0750214 -0.0745161 -0.0736248 -0.0731271 
216 0.124864 0.124922 0.124974 0.125039 0.12509 0.1249 0.12472 0.125225 0.126114 0.126612 
217 -0.119062 -0.119005 -0.118953 -0.118888 -0.118836 -0.119026 -0.119207 -0.118703 -0.117812 -0.117311 
218 0.058767 0.0588245 0.0588769 0.0589417 0.0589927 0.0588028 0.0586225 0.0591277 0.0600173 0.0605149 
219 -0.0107812 -0.0107236 -0.0106713 -0.0106064 -0.0105555 -0.0107453 -0.0109256 -0.0104205 -0.00953085 -0.00903325 
220 0.141554 0.141611 0.141663 0.141728 0.141779 0.141589 0.141409 0.141914 0.142804 0.143301 
221 0.0841604 0.084218 0.0842703 0.0843352 0.0843861 0.0841963 0.084016 0.0845211 0.0854108 0.0859084 
222 -0.0521285 -0.0520709 -0.0520186 -0.0519537 -0.0519028 -0.0520926 -0.0522729 -0.0517678 -0.0508782 -0.0503804 
223 0.0200668 0.0201243 0.0201766 0.0202415 0.0202925 0.0201026 0.0199223 0.0204274 0.0213171 0.0218147 
224 0.0586255 0.0586831 0.0587354 0.0588003 0.0588512 0.0586614 0.0584811 0.0589862 0.0598759 0.0603735 
225 -0.0460792 -0.0460217 -0.0459694 -0.0459045 -0.0458535 -0.0460434 -0.0462237 -0.0457186 -0.0448289 -0.0443313 
226 0.0996823 0.0997399 0.0997922 0.0998571 0.0999081 0.0997182 0.0995379 0.100043 0.100933 0.10143 
227 -0.0981558 -0.0980982 -0.0980459 -0.0979811 -0.0979301 -0.0981198 -0.0983003 -0.0977956 -0.0969055 -0.0964068 
228 0.0224945 0.022552 0.0226043 0.0226692 0.0227202 0.0225303 0.02235 0.0228551 0.0237448 0.0242424 
229 -0.0120471 -0.0119896 -0.0119373 -0.0118724 -0.0118214 -0.0120113 -0.0121916 -0.0116865 -0.0107968 -0.0102992 
230 0.0772651 0.0773227 0.077375 0.0774399 0.0774908 0.0773009 0.0771207 0.0776258 0.0785154 0.0790131 
231 -0.143586 -0.143528 -0.143476 -0.143412 -0.14336 -0.143549 -0.143729 -0.143227 -0.142339 -0.141836 
232 -0.0880595 -0.0880019 -0.0879496 -0.0878848 -0.0878338 -0.0880236 -0.0882039 -0.0876991 -0.0868094 -0.0863108 
233 0.120138 0.120196 0.120248 0.120313 0.120364 0.120174 0.119994 0.120499 0.121388 0.121886 
234 0.0969512 0.0970088 0.0970611 0.097126 0.0971769 0.0969871 0.0968068 0.0973119 0.0982015 0.0986992 
235 -0.132671 -0.132614 -0.132561 -0.132496 -0.132446 -0.132635 -0.132814 -0.13231 -0.131423 -0.130926 
236 0.110433 0.11049 0.110543 0.110608 0.110659 0.110469 0.110288 0.110794 0.111683 0.112181 
237 -0.172601 -0.172544 -0.172492 -0.172427 -0.172375 -0.172566 -0.172747 -0.17224 -0.171349 -0.170856 
238 -0.0752802 -0.0752227 -0.0751704 -0.0751055 -0.0750545 -0.0752444 -0.0754247 -0.0749196 -0.0740299 -0.0735324 
239 0.0303781 0.0304357 0.030488 0.0305528 0.0306038 0.0304139 0.0302336 0.0307388 0.0316284 0.032126 
240 -0.0430746 -0.0430171 -0.0429648 -0.0428999 -0.0428489 -0.0430388 -0.0432191 -0.042714 -0.0418243 -0.0413267 
241 0.0493279 0.0493855 0.0494378 0.0495026 0.0495536 0.0493637 0.0491834 0.0496886 0.0505782 0.0510758 
242 0.074413 0.0744705 0.0745229 0.0745877 0.0746387 0.0744488 0.0742685 0.0747736 0.0756633 0.0761609 
243 -0.0708856 -0.0708281 -0.0707757 -0.0707109 -0.0706599 -0.0708498 -0.0710301 -0.070525 -0.0696353 -0.0691376 
244 -0.120327 -0.120269 -0.120217 -0.120152 -0.120101 -0.120291 -0.120471 -0.119966 -0.119077 -0.118579 
245 -0.0108871 -0.0108295 -0.0107772 -0.0107123 -0.0106614 -0.0108512 -0.0110315 -0.0105264 -0.00963676 -0.00913914 
246 0.0277896 0.0278472 0.0278995 0.0279644 0.0280153 0.0278255 0.0276452 0.0281503 0.0290399 0.0295376 
247 -0.112805 -0.112747 -0.112695 -0.11263 -0.112579 -0.112769 -0.112949 -0.112444 -0.111555 -0.111057 
248 0.0486525 0.0487101 0.0487624 0.0488272 0.0488782 0.0486883 0.048508 0.0490132 0.0499028 0.0504004 
249 -0.00267709 -0.00261954 -0.00256722 -0.00250235 -0.00245139 -0.00264125 -0.00282156 -0.00231644 -0.00142678 -0.000929145 
250 -0.15966 -0.159603 -0.15955 -0.159486 -0.159435 -0.159625 -0.159805 -0.159299 -0.15841 -0.157914 
251 0.0812043 0.0812618 0.0813141 0.081379 0.08143 0.0812401 0.0810598 0.0815649 0.0824546 0.0829522 
252 -0.191757 -0.1917 -0.191648 -0.191583 -0.191531 -0.191721 -0.191904 -0.191397 -0.190502 -0.19001 
253 0.0675986 0.0676561 0.0677085 0.0677733 0.0678243 0.0676344 0.0674541 0.0679593 0.0688489 0.0693465 
254 -0.0442331 -0.0441755 -0.0441232 -0.0440584 -0.0440074 -0.0441973 -0.0443776 -0.0438724 -0.0429828 -0.0424852 
255 -0.155853 -0.155796 -0.155743 -0.155678 -0.155628 -0.155818 -0.155998 -0.155492 -0.154603 -0.154105 
256 -0.188865 -0.188807 -0.188755 -0.188691 -0.18864 -0.188828 -0.18901 -0.188507 -0.187614 -0.187112 
257 7.05753e-05 0.000128126 0.000180441 0.000245317 0.000296271 0.000106409 -7.38894e-05 0.000431229 0.00132088 0.00181852 
258 -0.21718 -0.217122 -0.217071 -0.217006 -0.216953 -0.217143 -0.217327 -0.216822 -0.215923 -0.215427 
259 -0.102021 -0.101963 -0.101911 -0.101846 -0.101795 -0.101985 -0.102165 -0.10166 -0.10077 -0.100273 
260 0.0669606 0.0670181 0.0670704 0.0671353 0.0671863 0.0669964 0.0668161 0.0673212 0.0682109 0.0687085 
261 -0.0207329 -0.0206753 -0.020623 -0.0205582 -0.0205072 -0.0206971 -0.0208774 -0.0203722 -0.0194826 -0.018985 
262 0.02743 0.0274875 0.0275398 0.0276047 0.0276557 0.0274658 0.0272855 0.0277906 0.0286803 0.0291779 
263 0.040105 0.0401626 0.0402149 0.0402798 0.0403307 0.0401409 0.0399606 0.0404657 0.0413553 0.041853 
264 -0.144609 -0.144552 -0.144499 -0.144434 -0.144383 -0.144573 -0.144754 -0.144248 -0.143359 -0.142861 
265 -0.0738656 -0.0738081 -0.0737557 -0.0736909 -0.0736399 -0.0738298 -0.0740101 -0.073505 -0.0726153 -0.0721177 
266 -0.21287 -0.212812 -0.21276 -0.212696 -0.212645 -0.212833 -0.213013 -0.212511 -0.211622 -0.211117 
267 -0.013728 -0.0136704 -0.0136181 -0.0135532 -0.0135023 -0.0136921 -0.0138724 -0.0133673 -0.0124777 -0.01198 
268 -0.13758 -0.137522 -0.13747 -0.137405 -0.137354 -0.137544 -0.137724 -0.137219 -0.136329 -0.135832 
269 -0.227769 -0.227711 -0.22766 -0.227596 -0.227544 -0.227731 -0.227915 -0.227414 -0.226518 -0.22601 
270 -0.103596 -0.103538 -0.103486 -0.103421 -0.10337 -0.10356 -0.10374 -0.103235 -0.102346 -0.101848 
271 0.000108544 0.000166095 0.00021841 0.000283286 0.00033424 0.000144377 -3.59228e-05 0.000469199 0.00135885 0.00185648 
272 -0.192521 -0.192464 -0.192412 -0.192347 -0.192296 -0.192486 -0.192666 -0.19216 -0.191271 -0.190774 
273 0.0396511 0.0397087 0.039761 0.0398259 0.0398768 0.0396869 0.0395066 0.0400118 0.0409014 0.0413991 
274 -0.0492539 -0.0491963 -0.049144 -0.0490791 -0.0490282 -0.049218 -0.0493983 -0.0488932 -0.0480036 -0.0475059 
275 0.0256356 0.0256931 0.0257455 0.0258103 0.0258613 0.0256714 0.0254911 0.0259962 0.0268859 0.0273835 
276 -0.219084 -0.219027 -0.218974 -0.218909 -0.218859 -0.219049 -0.219227 -0.218723 -0.217837 -0.217337 
277 -0.187659 -0.187601 -0.187549 -0.187484 -0.187433 -0.187623 -0.187804 -0.187298 -0.186408 -0.185911 
278 -0.0740411 -0.0739835 -0.0739312 -0.0738663 -0.0738154 -0.0740052 -0.0741855 -0.0736804 -0.0727908 -0.0722931 
279 -0.0446865 -0.044629 -0.0445767 -0.0445118 -0.0444608 -0.0446507 -0.044831 -0.0443259 -0.0434362 -0.0429386 
280 -0.248866 -0.248807 -0.248756 -0.248692 -0.24864 -0.248827 -0.249009 -0.24851 -0.247617 -0.247105 
281 -0.164343 -0.164285 -0.164233 -0.164168 -0.164117 -0.164307 -0.164487 -0.163982 -0.163093 -0.162595 
282 0.0249317 0.0249892 0.0250415 0.0251064 0.0251574 0.0249675 0.0247872 0.0252923 0.026182 0.0266796 
283 -0.132235 -0.132177 -0.132125 -0.13206 -0.132009 -0.132199 -0.132379 -0.131874 -0.130984 -0.130487 
284 -0.00106516 -0.00100761 -0.000955299 -0.000890423 -0.000839469 -0.00102933 -0.00120963 -0.000704511 0.000185143 0.000682778 
285 -0.0263878 -0.0263302 -0.0262779 -0.026213 -0.0261621 -0.026352 -0.0265323 -0.0260271 -0.0251375 -0.0246398 
286 -0.243642 -0.243584 -0.243531 -0.243466 -0.243417 -0.243607 -0.243784 -0.243278 -0.242395 -0.241899 
287 -0.156906 -0.156848 -0.156796 -0.156731 -0.15668 -0.15687 -0.15705 -0.156545 -0.155655 -0.155158 
288 -0.258417 -0.258359 -0.258306 -0.258242 -0.258192 -0.25838 -0.258558 -0.258058 -0.257174 -0.256664 
289 -0.0248905 -0.024833 -0.0247807 -0.0247158 -0.0246648 -0.0248547 -0.025035 -0.0245299 -0.0236402 -0.0231426 
290 -0.211629 -0.211571 -0.211519 -0.211454 -0.211403 -0.211593 -0.211774 -0.211268 -0.210378 -0.20988 
291 -0.10255 -0.102493 -0.10244 -0.102376 -0.102325 -0.102514 -0.102695 -0.10219 -0.1013 -0.100802 
292 -0.194655 -0.194597 -0.194545 -0.19448 -0.194429 -0.194619 -0.194799 -0.194294 -0.193405 -0.192906 
293 -0.0713154 -0.0712578 -0.0712055 -0.0711406 -0.0710897 -0.0712795 -0.0714598 -0.0709547 -0.0700651 -0.0695674 
294 0.00205632 0.00211388 0.00216619 0.00223107 0.00228202 0.00209216 0.00191186 0.00241698 0.00330663 0.00380427 
295 -0.0107414 -0.0106838 -0.0106315 -0.0105666 -0.0105157 -0.0107055 -0.0108858 -0.0103807 -0.00949106 -0.00899343 
296 -0.13058 -0.130522 -0.13047 -0.130405 -0.130354 -0.130544 -0.130725 -0.130219 -0.12933 -0.128832 
297 -0.0661575 -0.0660999 -0.0660476 -0.0659828 -0.0659318 -0.0661217 -0.066302 -0.0657968 -0.0649072 -0.0644096 
298 -0.25219 -0.252133 -0.25208 -0.252015 -0.251964 -0.252155 -0.252335 -0.251827 -0.25094 -0.250447 
299 -0.237367 -0.237309 -0.237257 -0.237192 -0.237141 -0.237331 -0.237512 -0.237006 -0.236115 -0.23562 
300 -0.183044 -0.182987 -0.182934 -0.182869 -0.182818 -0.183008 -0.183189 -0.182683 -0.181794 -0.181296 