VARIABLES = "Cell" "Mode 0" "Mode 1" "Mode 2" "Mode 3" "Mode 4" "Mode 5" "Mode 6" "Mode 7" "Mode 8" "Mode 9" 
ZONE T = Iteration40
0 0.610673 0.60986 0.609054 0.608253 0.607456 0.606662 0.605867 0.605068 0.604267 0.603476 
1 0.610259 0.60943 0.608607 0.607789 0.606974 0.606161 0.605347 0.604529 0.603709 0.602897 
2 0.600005 0.599873 0.59975 0.599635 0.599526 0.599422 0.59932 0.599216 0.599112 0.599018 
3 0.605138 0.604767 0.604419 0.604089 0.603778 0.603482 0.6032 0.602926 0.60266 0.602413 
4 0.598664 0.598542 0.598425 0.598313 0.598206 0.598101 0.597994 0.597877 0.597758 0.597667 
5 0.593107 0.593058 0.593047 0.593084 0.593171 0.593301 0.59345 0.593583 0.59366 0.593655 
6 0.620012 0.618835 0.617726 0.616682 0.615696 0.614764 0.613876 0.613031 0.612233 0.611487 
7 0.670801 0.667167 0.663744 0.660515 0.657468 0.654591 0.651868 0.649281 0.646825 0.644518 
8 0.594219 0.594241 0.594294 0.594375 0.594477 0.594584 0.594675 0.594727 0.594724 0.594672 
9 0.594434 0.594309 0.5942 0.594083 0.593945 0.593781 0.593606 0.593463 0.593433 0.593597 
10 0.594951 0.5952 0.595412 0.595581 0.595714 0.595827 0.595941 0.596087 0.596294 0.596579 
11 0.582248 0.584917 0.587255 0.589294 0.591091 0.592715 0.594217 0.595596 0.596825 0.597887 
12 0.209059 0.283199 0.345348 0.397638 0.442021 0.48004 0.512888 0.541448 0.566296 0.587781 
13 0.595835 0.595384 0.594946 0.594543 0.594216 0.594007 0.593915 0.593896 0.593912 0.593969 
14 0.589342 0.590248 0.591034 0.591712 0.592297 0.592819 0.593318 0.593822 0.594314 0.594754 
15 0.579567 0.579783 0.579992 0.580192 0.580383 0.580566 0.580739 0.580895 0.581037 0.581179 
16 0.573719 0.573719 0.573728 0.573746 0.573771 0.5738 0.573828 0.573849 0.57387 0.573901 
17 0.572943 0.572947 0.572955 0.572963 0.572971 0.572976 0.572978 0.572983 0.573001 0.573042 
18 0.580457 0.5804 0.580352 0.580313 0.580281 0.580254 0.58023 0.580204 0.580179 0.580165 
19 0.318473 0.384197 0.435358 0.476197 0.509466 0.537004 0.560084 0.579591 0.596061 0.609788 
20 0.579596 0.579561 0.579537 0.579522 0.579514 0.579513 0.579515 0.579516 0.579518 0.579532 
21 0.579427 0.579361 0.579304 0.579255 0.579213 0.579177 0.579143 0.579107 0.579071 0.579047 
22 0.553239 0.554664 0.556012 0.557287 0.558492 0.559631 0.560707 0.561722 0.562673 0.563569 
23 0.577212 0.57689 0.576605 0.576345 0.576105 0.575885 0.575694 0.575559 0.575509 0.575559 
24 0.578579 0.577237 0.576041 0.574972 0.57402 0.573194 0.572515 0.571994 0.571629 0.571444 
25 0.569909 0.569919 0.569946 0.569985 0.570029 0.570073 0.570102 0.570097 0.570045 0.569967 
26 0.570953 0.570931 0.570925 0.570931 0.570942 0.570954 0.57096 0.570957 0.570941 0.570921 
27 0.591642 0.586388 0.58163 0.577394 0.573643 0.570294 0.567281 0.564627 0.562388 0.560425 
28 0.548014 0.550133 0.552043 0.553765 0.555335 0.556769 0.55805 0.55918 0.560247 0.561329 
29 0.551512 0.551227 0.551164 0.551264 0.551457 0.551714 0.552052 0.552456 0.55278 0.552847 
30 0.732659 0.68227 0.642909 0.611514 0.585975 0.564856 0.547211 0.532418 0.519962 0.509312 
31 0.551064 0.551685 0.55232 0.552967 0.553623 0.554289 0.55496 0.555632 0.556308 0.556998 
32 0.553791 0.553853 0.553921 0.553995 0.554075 0.554158 0.554241 0.554321 0.5544 0.554488 
33 0.550806 0.55112 0.551428 0.551729 0.552023 0.552309 0.552586 0.552849 0.553101 0.553358 
34 0.530399 0.530126 0.529896 0.529702 0.52954 0.529394 0.529236 0.529039 0.52883 0.528703 
35 0.544453 0.544451 0.54447 0.544508 0.544554 0.544593 0.544596 0.544534 0.544388 0.544175 
36 0.545661 0.545761 0.54587 0.545987 0.546111 0.54624 0.546372 0.546504 0.546637 0.54678 
37 0.537459 0.537467 0.537489 0.537526 0.537578 0.537638 0.537686 0.537699 0.537651 0.537535 
38 0.516815 0.516502 0.516244 0.516027 0.515826 0.515602 0.515315 0.514977 0.514676 0.514498 
39 0.549013 0.549 0.548998 0.549007 0.549026 0.549052 0.549082 0.549113 0.549147 0.549194 
40 0.53631 0.536251 0.536197 0.536145 0.536093 0.53604 0.535989 0.535943 0.535908 0.5359 
41 0.534498 0.534427 0.534359 0.534291 0.534222 0.534155 0.534095 0.534046 0.534014 0.534011 
42 0.541766 0.541674 0.541599 0.541539 0.541492 0.541457 0.541431 0.541409 0.541393 0.541394 
43 0.513946 0.514031 0.514119 0.514212 0.514303 0.514377 0.514403 0.514343 0.514193 0.51401 
44 0.485475 0.484675 0.484221 0.483905 0.483631 0.483388 0.483186 0.482969 0.48264 0.482263 
45 0.51913 0.519061 0.519004 0.518955 0.518916 0.518883 0.518855 0.518829 0.518807 0.518795 
46 0.538108 0.53823 0.538363 0.538506 0.538658 0.538818 0.538981 0.539145 0.539311 0.53949 
47 0.482519 0.481829 0.481123 0.480431 0.479737 0.479035 0.478365 0.477784 0.477244 0.476576 
48 0.507864 0.507761 0.507672 0.507594 0.507527 0.507469 0.507417 0.507363 0.507308 0.50726 
49 0.529049 0.529104 0.52917 0.529246 0.529331 0.529423 0.529519 0.529616 0.529714 0.529826 
50 0.502909 0.502824 0.502743 0.502669 0.502603 0.502546 0.502501 0.502476 0.502483 0.50251 
51 0.497586 0.497507 0.497431 0.497356 0.497286 0.497223 0.497166 0.497117 0.497093 0.497118 
52 0.525945 0.525768 0.5256 0.52544 0.525287 0.525139 0.524994 0.524847 0.5247 0.524565 
53 0.445315 0.445346 0.445484 0.445644 0.445808 0.445997 0.446199 0.44632 0.446261 0.446144 
54 0.476525 0.476391 0.476263 0.476147 0.476056 0.476009 0.476007 0.476027 0.476039 0.476055 
55 0.511612 0.511494 0.511388 0.511294 0.511209 0.511132 0.511059 0.510988 0.510918 0.510863 
56 0.498811 0.498675 0.498551 0.498438 0.498335 0.498239 0.498146 0.498054 0.497965 0.497891 
57 0.503519 0.503426 0.503342 0.503268 0.5032 0.503139 0.503081 0.503021 0.502963 0.502916 
58 0.469872 0.469782 0.469697 0.469612 0.469531 0.469461 0.469418 0.469407 0.46941 0.469396 
59 0.432249 0.432059 0.431887 0.43173 0.431581 0.431436 0.43132 0.431272 0.431278 0.431206 
60 0.498405 0.498287 0.498179 0.498079 0.497986 0.497899 0.497815 0.497729 0.497644 0.497571 
61 0.436686 0.436571 0.436468 0.436383 0.436326 0.436299 0.436279 0.436236 0.43619 0.436224 
62 0.490104 0.489995 0.489897 0.489806 0.489722 0.489644 0.489568 0.48949 0.489413 0.489348 
63 0.487338 0.487246 0.487163 0.48709 0.487024 0.486963 0.486906 0.486848 0.48679 0.486745 
64 0.464292 0.464225 0.464169 0.464123 0.464085 0.464055 0.464027 0.463999 0.463971 0.463953 
65 0.404994 0.405021 0.405067 0.405132 0.405221 0.405353 0.405548 0.405773 0.405892 0.405756 
66 0.412641 0.412581 0.412536 0.412508 0.412496 0.412492 0.412488 0.412503 0.41258 0.412712 
67 0.44933 0.449264 0.449209 0.449163 0.449125 0.449094 0.449065 0.449034 0.449003 0.448989 
68 0.462674 0.462611 0.462558 0.462515 0.462479 0.46245 0.462423 0.462395 0.462369 0.462355 
69 0.478474 0.478508 0.478553 0.478607 0.478669 0.478738 0.47881 0.478882 0.478954 0.479039 
70 0.364391 0.364376 0.364357 0.364347 0.364373 0.364457 0.364581 0.364659 0.364579 0.364351 
71 0.418485 0.418421 0.418367 0.418321 0.41828 0.418248 0.418225 0.418203 0.418171 0.418129 
72 0.457805 0.457746 0.457697 0.457657 0.457623 0.457596 0.457571 0.457545 0.45752 0.457507 
73 0.432664 0.432599 0.432545 0.4325 0.432464 0.432433 0.432405 0.432375 0.432343 0.432321 
74 0.439198 0.439141 0.439095 0.439056 0.439025 0.439 0.438978 0.438955 0.438933 0.438925 
75 0.39574 0.395698 0.395665 0.395637 0.395614 0.395593 0.395566 0.39552 0.395454 0.395404 
76 0.456915 0.456865 0.456825 0.456794 0.456771 0.456754 0.45674 0.456724 0.45671 0.456708 
77 0.4416 0.441561 0.441532 0.441512 0.441499 0.441493 0.44149 0.441486 0.441483 0.441492 
78 0.4009 0.400845 0.400803 0.40077 0.400742 0.400716 0.400688 0.400658 0.400626 0.400601 
79 0.363011 0.362973 0.362948 0.36292 0.362868 0.362789 0.362722 0.362723 0.362803 0.36287 
80 0.455451 0.455418 0.455394 0.45538 0.455373 0.455372 0.455375 0.455376 0.455378 0.455393 
81 0.327133 0.32708 0.327011 0.326926 0.326862 0.326858 0.326891 0.326861 0.326692 0.326471 
82 0.444186 0.444143 0.44411 0.444086 0.444069 0.444059 0.444051 0.444043 0.444035 0.44404 
83 0.362242 0.362203 0.362171 0.362149 0.362134 0.362109 0.36205 0.361965 0.36191 0.361957 
84 0.351126 0.35108 0.351048 0.351027 0.351002 0.350952 0.350878 0.350819 0.350831 0.350919 
85 0.327846 0.327806 0.327768 0.327711 0.327639 0.327597 0.327626 0.327684 0.327651 0.327457 
86 0.401091 0.401023 0.400965 0.400915 0.400873 0.400837 0.400804 0.40077 0.400736 0.400713 
87 0.437158 0.437082 0.437016 0.436959 0.43691 0.436866 0.436825 0.436783 0.436742 0.436713 
88 0.282244 0.282186 0.282102 0.282006 0.281973 0.282047 0.282118 0.281973 0.281596 0.28138 
89 0.382634 0.382566 0.382508 0.382459 0.382417 0.382382 0.382348 0.382313 0.38228 0.38226 
90 0.409446 0.409381 0.409327 0.409281 0.409243 0.409211 0.409182 0.409152 0.409122 0.409105 
91 0.421909 0.421841 0.421784 0.421735 0.421693 0.421658 0.421625 0.421592 0.421559 0.421538 
92 0.344894 0.344833 0.344781 0.344738 0.3447 0.344669 0.344644 0.344618 0.344591 0.344569 
93 0.29083 0.290767 0.290718 0.290661 0.290596 0.290566 0.290613 0.290685 0.290631 0.290378 
94 0.38815 0.388084 0.388029 0.387983 0.387944 0.38791 0.38788 0.387848 0.387818 0.387798 
95 0.373285 0.373219 0.373164 0.373116 0.373077 0.373043 0.373013 0.37298 0.372948 0.372929 
96 0.323032 0.32297 0.322917 0.322879 0.322854 0.322829 0.322785 0.322725 0.322696 0.322742 
97 0.311544 0.311471 0.311414 0.311376 0.311345 0.311306 0.311257 0.311228 0.311255 0.311311 
98 0.401122 0.401055 0.400997 0.400949 0.400908 0.400872 0.40084 0.400807 0.400774 0.400754 
99 0.411513 0.411445 0.411387 0.411338 0.411297 0.411261 0.411228 0.411195 0.411162 0.411141 
100 0.285876 0.285809 0.285764 0.285728 0.285677 0.285609 0.285576 0.285632 0.285726 0.285684 
101 0.406425 0.406356 0.406298 0.406249 0.406207 0.406171 0.406138 0.406103 0.40607 0.406049 
102 0.340066 0.340003 0.33995 0.339906 0.339869 0.339838 0.33981 0.339782 0.339757 0.339742 
103 0.245844 0.2458 0.245742 0.245649 0.245578 0.245635 0.245792 0.245793 0.245417 0.244937 
104 0.253325 0.253277 0.253236 0.253168 0.253079 0.253051 0.253156 0.253276 0.253143 0.252699 
105 0.305148 0.305081 0.305023 0.304976 0.304942 0.304922 0.304901 0.304864 0.304818 0.304808 
106 0.375831 0.375769 0.375718 0.375676 0.375641 0.375612 0.375586 0.375559 0.375532 0.375518 
107 0.358088 0.358029 0.35798 0.35794 0.357907 0.35788 0.357855 0.357829 0.357803 0.357789 
108 0.380364 0.380301 0.380249 0.380205 0.380169 0.380138 0.380111 0.380082 0.380055 0.380039 
109 0.20135 0.201307 0.201269 0.201191 0.201081 0.201059 0.201236 0.201433 0.201182 0.200385 
110 0.246978 0.246914 0.246873 0.246847 0.24681 0.246741 0.246678 0.246704 0.246823 0.246864 
111 0.389132 0.389074 0.389027 0.388989 0.388957 0.388932 0.38891 0.388887 0.388865 0.388854 
112 0.225545 0.225494 0.225464 0.225427 0.225353 0.225271 0.225279 0.225411 0.225489 0.225253 
113 0.331095 0.331036 0.330987 0.330947 0.330915 0.330888 0.330865 0.330841 0.330817 0.330806 
114 0.298864 0.298806 0.298759 0.29872 0.298689 0.298664 0.298642 0.29862 0.298599 0.29859 
115 0.256277 0.256216 0.256163 0.256118 0.256087 0.256073 0.256055 0.256004 0.255935 0.255927 
116 0.3253 0.325241 0.325192 0.325152 0.325119 0.325092 0.325069 0.325044 0.325021 0.325009 
117 0.228903 0.228838 0.228786 0.228754 0.228738 0.228708 0.228636 0.228561 0.22859 0.22875 
118 0.342431 0.342371 0.342322 0.342281 0.342248 0.342221 0.342197 0.342171 0.342147 0.342135 
119 0.188037 0.187972 0.187933 0.18792 0.187885 0.187772 0.187655 0.187753 0.188089 0.188161 
120 0.35789 0.357832 0.357784 0.357745 0.357713 0.357687 0.357665 0.357641 0.357618 0.357607 
121 0.29892 0.298861 0.298811 0.298771 0.298738 0.298711 0.298687 0.298661 0.298638 0.298629 
122 0.332508 0.332449 0.3324 0.33236 0.332327 0.3323 0.332277 0.332252 0.332228 0.332217 
123 0.169901 0.169848 0.169831 0.169801 0.169688 0.169537 0.169584 0.16994 0.170146 0.169488 
124 0.361993 0.361934 0.361885 0.361845 0.361812 0.361786 0.361762 0.361737 0.361713 0.361701 
125 0.238485 0.238426 0.238376 0.238334 0.238297 0.23827 0.238253 0.238235 0.238198 0.238152 
126 0.189883 0.18982 0.189766 0.189726 0.189709 0.189694 0.189631 0.18952 0.189505 0.189728 
127 0.259229 0.259169 0.259119 0.259079 0.259045 0.259016 0.25899 0.258968 0.258949 0.258935 
128 0.300832 0.300772 0.300723 0.300683 0.30065 0.300623 0.3006 0.300576 0.300553 0.300544 
129 0.333559 0.3335 0.333451 0.333411 0.333379 0.333352 0.333329 0.333304 0.33328 0.333269 
130 0.321648 0.321588 0.32154 0.3215 0.321467 0.321441 0.321417 0.321392 0.321369 0.321357 
131 0.167805 0.167738 0.167684 0.167659 0.167652 0.167603 0.167477 0.167397 0.16758 0.167917 
132 0.12576 0.125707 0.125686 0.12566 0.125557 0.125405 0.125429 0.125786 0.126048 0.125397 
133 0.339629 0.339567 0.339515 0.339471 0.339435 0.339406 0.339379 0.339351 0.339324 0.339309 
134 0.2518 0.25174 0.251689 0.251647 0.251613 0.251586 0.25156 0.251533 0.251505 0.251493 
135 0.160616 0.160554 0.160501 0.160455 0.160426 0.160419 0.160401 0.160316 0.160204 0.160259 
136 0.23001 0.229949 0.229898 0.229855 0.22982 0.229791 0.229764 0.229734 0.229709 0.229701 
137 0.271878 0.271817 0.271766 0.271724 0.27169 0.271662 0.271636 0.27161 0.271585 0.271571 
138 0.0945877 0.0945251 0.094492 0.0944814 0.0944346 0.0942976 0.0941864 0.0943758 0.0948147 0.0947267 
139 0.304562 0.304501 0.30445 0.304409 0.304374 0.304346 0.304321 0.304295 0.304269 0.304256 
140 0.288851 0.28879 0.288739 0.288697 0.288663 0.288634 0.288609 0.288582 0.288556 0.288542 
141 0.19044 0.190379 0.19033 0.190288 0.190251 0.19022 0.190197 0.190183 0.190164 0.190122 
142 0.126834 0.12677 0.126713 0.126675 0.126668 0.126658 0.126573 0.126436 0.126456 0.126776 
143 0.314193 0.314132 0.314081 0.314039 0.314005 0.313977 0.313951 0.313924 0.313899 0.313885 
144 0.15643 0.15637 0.156319 0.156275 0.156236 0.156212 0.156208 0.156193 0.156112 0.156005 
145 0.238954 0.238893 0.238843 0.238801 0.238766 0.238738 0.238713 0.238686 0.23866 0.238644 
146 0.0963724 0.0963047 0.0962572 0.0962402 0.0962321 0.0961634 0.096011 0.0959558 0.0962561 0.0966775 
147 0.296783 0.296722 0.296671 0.29663 0.296595 0.296567 0.296542 0.296515 0.29649 0.296476 
148 0.119944 0.119884 0.11983 0.119783 0.119756 0.119755 0.119737 0.119634 0.119514 0.11962 
149 0.278412 0.278351 0.2783 0.278258 0.278224 0.278195 0.278169 0.278143 0.278117 0.278103 
150 0.262527 0.262466 0.262415 0.262373 0.262339 0.26231 0.262285 0.262258 0.262232 0.262219 
151 0.188504 0.188443 0.188392 0.188352 0.188318 0.188288 0.188258 0.188231 0.188216 0.188217 
152 0.0489774 0.0489265 0.0489024 0.0488677 0.0487762 0.0486578 0.0486734 0.0489469 0.0491857 0.0487027 
153 0.292847 0.292787 0.292737 0.292696 0.292662 0.292634 0.292609 0.292584 0.292559 0.292546 
154 0.0537909 0.0537233 0.0536806 0.053662 0.0536365 0.0535656 0.053464 0.0534459 0.0536409 0.0539103 
155 0.264842 0.264782 0.264732 0.264691 0.264657 0.264629 0.264604 0.264578 0.264553 0.26454 
156 0.0859467 0.0858852 0.0858346 0.0857939 0.0857591 0.0857324 0.08572 0.0856999 0.0856289 0.085558 
157 0.106125 0.106065 0.106013 0.10597 0.105938 0.105912 0.105887 0.105869 0.105845 0.105782 
158 0.244506 0.244446 0.244396 0.244354 0.24432 0.244292 0.244267 0.244241 0.244216 0.244203 
159 0.0270994 0.0270392 0.0270106 0.0269886 0.0269259 0.0268185 0.0267654 0.0269075 0.0271815 0.0271185 
160 0.197127 0.197067 0.197017 0.196976 0.196942 0.196914 0.196889 0.196863 0.196838 0.196826 
161 0.232105 0.232045 0.231995 0.231954 0.23192 0.231893 0.231868 0.231842 0.231817 0.231805 
162 0.152503 0.152442 0.152392 0.152351 0.152318 0.152291 0.152265 0.152237 0.15221 0.152203 
163 0.265374 0.265314 0.265264 0.265222 0.265188 0.265161 0.265136 0.26511 0.265085 0.265072 
164 0.237581 0.237521 0.237471 0.23743 0.237396 0.237368 0.237343 0.237317 0.237292 0.237279 
165 0.0504964 0.0504298 0.0503735 0.0503402 0.0503277 0.0503048 0.0502368 0.0501429 0.0501352 0.0503332 
166 0.15741 0.15735 0.157299 0.157258 0.157224 0.157197 0.157172 0.157146 0.157119 0.157103 
167 -0.00989504 -0.0099703 -0.0100039 -0.00999549 -0.0100355 -0.0101955 -0.0103247 -0.0101253 -0.00967046 -0.00973032 
168 0.245826 0.245765 0.245715 0.245673 0.245639 0.24561 0.245585 0.245559 0.245533 0.24552 
169 0.198621 0.198561 0.198511 0.198469 0.198436 0.198408 0.198382 0.198357 0.198332 0.198319 
170 0.0822608 0.0822026 0.0821539 0.082109 0.0820715 0.0820477 0.0820284 0.0820005 0.0819773 0.0819693 
171 0.10374 0.103678 0.10363 0.103591 0.103555 0.103522 0.103498 0.103478 0.103455 0.103448 
172 0.181547 0.181486 0.181436 0.181395 0.181361 0.181333 0.181308 0.181283 0.181257 0.181243 
173 0.0208897 0.0208276 0.020765 0.0207202 0.0207159 0.0207179 0.0206435 0.0205011 0.0204821 0.0207493 
174 0.212716 0.212655 0.212605 0.212563 0.212529 0.212501 0.212476 0.21245 0.212425 0.212411 
175 0.219412 0.219351 0.219301 0.21926 0.219226 0.219198 0.219173 0.219146 0.219121 0.219108 
176 -0.0297341 -0.0298143 -0.0298769 -0.029872 -0.029847 -0.029951 -0.0301783 -0.0301916 -0.0297306 -0.0293214 
177 0.120647 0.120587 0.120537 0.120495 0.12046 0.120433 0.120409 0.120381 0.120355 0.120345 
178 0.0381925 0.0381349 0.0380886 0.0380421 0.0379966 0.0379732 0.0379759 0.0379602 0.0378858 0.0378043 
179 0.175586 0.175526 0.175476 0.175434 0.1754 0.175372 0.175347 0.17532 0.175295 0.175284 
180 0.0186386 0.0185837 0.0185301 0.0184714 0.0184363 0.0184523 0.0184623 0.0183563 0.0181748 0.0182031 
181 -0.0137744 -0.0138375 -0.0139104 -0.0139537 -0.0139288 -0.0139145 -0.0140577 -0.0142871 -0.014203 -0.0136162 
182 0.188108 0.188047 0.187997 0.187956 0.187922 0.187894 0.187869 0.187843 0.187817 0.187804 
183 0.206979 0.206919 0.206868 0.206827 0.206793 0.206765 0.20674 0.206714 0.206689 0.206675 
184 0.0741222 0.0740602 0.0740093 0.0739706 0.0739393 0.0739065 0.0738747 0.0738555 0.0738427 0.0738217 
185 0.142954 0.142894 0.142844 0.142802 0.142769 0.14274 0.142715 0.14269 0.142665 0.142648 
186 0.0865909 0.0865305 0.0864789 0.0864364 0.0864057 0.0863814 0.0863503 0.0863148 0.0862976 0.0863044 
187 0.120515 0.120454 0.120405 0.120363 0.120328 0.1203 0.120277 0.120251 0.120223 0.12021 
188 -0.0149334 -0.0149903 -0.0150398 -0.0150935 -0.0151368 -0.0151336 -0.0151063 -0.0151768 -0.0153893 -0.0154575 
189 0.199497 0.199436 0.199386 0.199345 0.199311 0.199283 0.199258 0.199232 0.199207 0.199194 
190 0.169615 0.169554 0.169504 0.169463 0.169429 0.169401 0.169376 0.16935 0.169325 0.169311 
191 -0.0706054 -0.0706693 -0.0707301 -0.0707481 -0.0707393 -0.0708324 -0.0710172 -0.0709429 -0.0704707 -0.0704073 
192 -0.0357693 -0.0358214 -0.0358767 -0.0359397 -0.0359627 -0.0359275 -0.0359481 -0.0361367 -0.0362977 -0.0360196 
193 0.0173239 0.0172628 0.0172156 0.0171764 0.0171364 0.0171008 0.0170874 0.0170846 0.0170432 0.0169662 
194 0.178746 0.178685 0.178635 0.178594 0.17856 0.178532 0.178507 0.17848 0.178456 0.178443 
195 0.13913 0.13907 0.13902 0.138978 0.138944 0.138917 0.138892 0.138864 0.138838 0.138829 
196 0.121921 0.12186 0.12181 0.121768 0.121735 0.121707 0.121681 0.121654 0.121632 0.12162 
197 0.0327915 0.0327294 0.0326791 0.0326415 0.0326094 0.0325728 0.0325399 0.032532 0.0325329 0.0324904 
198 -0.0631171 -0.063172 -0.0632021 -0.0632534 -0.0633004 -0.0632846 -0.063313 -0.0635131 -0.0635799 -0.063084 
199 0.0869383 0.0868775 0.0868276 0.0867866 0.0867524 0.0867234 0.0866986 0.0866747 0.0866489 0.0866318 
200 0.167773 0.167713 0.167663 0.167621 0.167587 0.16756 0.167535 0.167508 0.167483 0.16747 
201 -0.0826881 -0.0827392 -0.0828005 -0.0828534 -0.0828437 -0.082846 -0.0830031 -0.0831335 -0.0828268 -0.0823911 
202 0.0547055 0.0546457 0.0545954 0.0545519 0.0545177 0.0544948 0.0544723 0.0544354 0.0544005 0.0544058 
203 0.176881 0.176821 0.176771 0.176729 0.176695 0.176667 0.176642 0.176616 0.176591 0.176578 
204 -0.0325921 -0.0326526 -0.0326994 -0.0327416 -0.0327877 -0.0328184 -0.0328078 -0.0328004 -0.0329014 -0.0330684 
205 0.140119 0.140059 0.140009 0.139967 0.139933 0.139905 0.13988 0.139855 0.13983 0.139815 
206 0.121223 0.121162 0.121112 0.121071 0.121037 0.121009 0.120984 0.120959 0.120931 0.120918 
207 -0.0184332 -0.0184934 -0.0185429 -0.0185837 -0.0186202 -0.0186557 -0.0186767 -0.0186694 -0.0186809 -0.0187949 
208 0.0891681 0.0891075 0.0890572 0.0890159 0.0889825 0.0889543 0.0889278 0.0889024 0.08888 0.0888648 
209 0.0558231 0.0557628 0.0557135 0.0556717 0.0556354 0.0556076 0.0555883 0.055564 0.0555262 0.0555048 
210 0.0211893 0.0211288 0.0210773 0.0210353 0.0210051 0.0209796 0.0209454 0.0209113 0.0209061 0.0209188 
211 -0.0844207 -0.0844916 -0.0845341 -0.0845669 -0.0846121 -0.0846336 -0.0846271 -0.084698 -0.0848224 -0.0847124 
212 -0.115407 -0.115464 -0.11556 -0.115626 -0.115586 -0.115568 -0.115722 -0.1158 -0.115475 -0.1153 
213 0.145683 0.145622 0.145572 0.145531 0.145497 0.145469 0.145444 0.145418 0.145392 0.14538 
214 0.161752 0.161692 0.161642 0.1616 0.161566 0.161538 0.161513 0.161487 0.161462 0.161449 
215 -0.0732832 -0.0733521 -0.0734052 -0.0734363 -0.0734713 -0.073511 -0.0735152 -0.0735233 -0.0736293 -0.0736965 
216 0.126452 0.126392 0.126342 0.1263 0.126266 0.126238 0.126213 0.126187 0.126162 0.126149 
217 -0.117469 -0.117508 -0.11758 -0.117674 -0.117689 -0.117623 -0.117671 -0.117852 -0.117776 -0.11739 
218 0.0603551 0.0602946 0.0602445 0.0602028 0.060169 0.0601417 0.0601162 0.0600887 0.0600645 0.0600547 
219 -0.0091931 -0.00925374 -0.0093037 -0.0093452 -0.00937889 -0.00940581 -0.00943279 -0.00946464 -0.00948405 -0.0094704 
220 0.143142 0.143081 0.143031 0.142989 0.142955 0.142928 0.142902 0.142876 0.142851 0.142838 
221 0.0857486 0.085688 0.0856379 0.0855966 0.0855626 0.0855344 0.0855094 0.0854842 0.0854584 0.0854431 
222 -0.0505401 -0.0505994 -0.0506511 -0.0506951 -0.0507259 -0.0507508 -0.0507858 -0.0508129 -0.0507991 -0.0508046 
223 0.0216549 0.0215942 0.0215444 0.0215033 0.0214687 0.021439 0.0214154 0.0213952 0.0213677 0.0213385 
224 0.0602136 0.0601531 0.0601031 0.0600616 0.0600274 0.0599996 0.0599752 0.0599487 0.0599218 0.0599099 
225 -0.0444918 -0.0445513 -0.0446 -0.0446436 -0.0446803 -0.0447042 -0.0447265 -0.0447632 -0.0447855 -0.0447585 
226 0.10127 0.10121 0.10116 0.101118 0.101084 0.101057 0.101031 0.101005 0.10098 0.100968 
227 -0.096564 -0.0966267 -0.0966836 -0.0967214 -0.0967467 -0.0967834 -0.0968159 -0.0968211 -0.0968505 -0.0969115 
228 0.0240826 0.024022 0.0239718 0.0239306 0.0238972 0.0238685 0.023841 0.0238169 0.0237992 0.0237826 
229 -0.0104589 -0.0105196 -0.0105697 -0.0106112 -0.0106455 -0.0106727 -0.0106957 -0.0107245 -0.0107601 -0.0107672 
230 0.0788533 0.0787927 0.0787426 0.0787011 0.0786673 0.0786394 0.0786138 0.0785879 0.0785639 0.0785501 
231 -0.14201 -0.14203 -0.142069 -0.142177 -0.14226 -0.142206 -0.142148 -0.142278 -0.142358 -0.142061 
232 -0.0864684 -0.0865256 -0.0865864 -0.0866357 -0.0866519 -0.0866666 -0.0867184 -0.0867552 -0.0867399 -0.0867818 
233 0.121726 0.121666 0.121616 0.121574 0.12154 0.121512 0.121487 0.121461 0.121436 0.121423 
234 0.0985393 0.0984788 0.0984287 0.0983873 0.0983532 0.0983254 0.0983004 0.0982742 0.0982487 0.0982359 
235 -0.131103 -0.131152 -0.131158 -0.131201 -0.131314 -0.13137 -0.131283 -0.131258 -0.131448 -0.131459 
236 0.112021 0.111961 0.11191 0.111869 0.111835 0.111807 0.111782 0.111756 0.111731 0.111718 
237 -0.171033 -0.171092 -0.171082 -0.171116 -0.171276 -0.171342 -0.171136 -0.17105 -0.171448 -0.171701 
238 -0.0736928 -0.0737535 -0.0738011 -0.0738418 -0.0738811 -0.0739116 -0.0739264 -0.073948 -0.0739933 -0.0740087 
239 0.0319662 0.0319056 0.0318556 0.0318142 0.0317801 0.0317521 0.0317272 0.0317014 0.0316754 0.0316616 
240 -0.0414863 -0.041547 -0.0415975 -0.041639 -0.041672 -0.0416998 -0.0417261 -0.041752 -0.0417774 -0.0417958 
241 0.050916 0.0508555 0.0508054 0.0507638 0.0507298 0.0507023 0.0506771 0.0506503 0.0506255 0.050614 
242 0.0760011 0.0759405 0.0758905 0.075849 0.075815 0.0757871 0.0757621 0.0757361 0.0757106 0.0756971 
243 -0.0692972 -0.069359 -0.0694092 -0.0694474 -0.0694804 -0.0695156 -0.069544 -0.069556 -0.0695747 -0.0696133 
244 -0.11874 -0.118793 -0.118845 -0.118901 -0.118932 -0.118934 -0.118966 -0.119035 -0.119045 -0.118997 
245 -0.00929899 -0.00935953 -0.00940956 -0.00945113 -0.00948499 -0.00951236 -0.00953822 -0.0095665 -0.00958946 -0.00959529 
246 0.0293778 0.0293172 0.029267 0.0292256 0.0291918 0.0291638 0.0291384 0.0291127 0.0290881 0.0290734 
247 -0.11122 -0.111277 -0.11132 -0.111369 -0.111416 -0.11143 -0.111432 -0.111486 -0.111548 -0.111509 
248 0.0502406 0.05018 0.05013 0.0500885 0.0500544 0.0500266 0.0500018 0.0499755 0.0499495 0.049937 
249 -0.00108896 -0.00114959 -0.0011996 -0.00124102 -0.0012752 -0.00130294 -0.00132724 -0.00135426 -0.00138249 -0.00139275 
250 -0.158072 -0.158153 -0.158193 -0.158181 -0.158215 -0.158355 -0.158419 -0.158255 -0.158168 -0.158471 
251 0.0827924 0.0827318 0.0826818 0.0826403 0.0826063 0.0825785 0.0825533 0.0825271 0.082502 0.0824891 
252 -0.19017 -0.19029 -0.190291 -0.190207 -0.19032 -0.19059 -0.190486 -0.190058 -0.190296 -0.191187 
253 0.0691867 0.0691262 0.0690761 0.0690346 0.0690007 0.0689727 0.0689476 0.0689216 0.0688965 0.0688829 
254 -0.042645 -0.0427054 -0.0427555 -0.0427974 -0.0428312 -0.0428584 -0.042884 -0.042911 -0.0429342 -0.0429475 
255 -0.154257 -0.154328 -0.1544 -0.154421 -0.154395 -0.154447 -0.154608 -0.154629 -0.154403 -0.154369 
256 -0.187251 -0.187352 -0.187443 -0.187406 -0.187354 -0.187527 -0.187726 -0.18748 -0.187158 -0.187658 
257 0.0016587 0.00159818 0.00154803 0.00150651 0.00147269 0.00144478 0.00141926 0.00139367 0.00136957 0.00135424 
258 -0.215557 -0.215705 -0.215787 -0.215673 -0.215613 -0.215886 -0.216094 -0.215731 -0.215475 -0.216227 
259 -0.100432 -0.100493 -0.100545 -0.100585 -0.100615 -0.100645 -0.100682 -0.100704 -0.100704 -0.100719 
260 0.0685487 0.0684881 0.068438 0.0683966 0.0683625 0.0683347 0.0683096 0.0682835 0.0682582 0.0682452 
261 -0.0191447 -0.0192053 -0.0192555 -0.0192969 -0.0193308 -0.0193588 -0.0193839 -0.0194092 -0.0194355 -0.0194516 
262 0.0290181 0.0289575 0.0289074 0.028866 0.028832 0.028804 0.028779 0.0287531 0.0287277 0.028714 
263 0.0416931 0.0416326 0.0415825 0.041541 0.0415071 0.0414792 0.041454 0.0414279 0.041403 0.0413897 
264 -0.143022 -0.143083 -0.143128 -0.14317 -0.143217 -0.143242 -0.143236 -0.143268 -0.143363 -0.143369 
265 -0.0722775 -0.072338 -0.0723879 -0.0724296 -0.0724642 -0.0724916 -0.0725149 -0.0725419 -0.0725715 -0.0725831 
266 -0.211258 -0.211309 -0.211436 -0.211511 -0.211401 -0.21134 -0.21161 -0.211812 -0.211415 -0.211138 
267 -0.0121399 -0.0122004 -0.0122504 -0.012292 -0.0123261 -0.0123537 -0.0123788 -0.0124055 -0.0124302 -0.0124421 
268 -0.135991 -0.136054 -0.136103 -0.136137 -0.136176 -0.136221 -0.136235 -0.13622 -0.136269 -0.136372 
269 -0.226122 -0.226228 -0.226409 -0.2264 -0.226176 -0.226225 -0.226688 -0.226739 -0.226071 -0.226084 
270 -0.102008 -0.102068 -0.102119 -0.102161 -0.102194 -0.102218 -0.102245 -0.102283 -0.102304 -0.102293 
271 0.00169665 0.00163609 0.00158605 0.00154458 0.00151052 0.00148264 0.00145768 0.00143152 0.00140605 0.00139321 
272 -0.19093 -0.190986 -0.191051 -0.191113 -0.191111 -0.191076 -0.191162 -0.191346 -0.191296 -0.190983 
273 0.0412392 0.0411787 0.0411286 0.0410871 0.0410531 0.0410253 0.0410002 0.040974 0.0409487 0.0409357 
274 -0.0476658 -0.0477263 -0.0477763 -0.047818 -0.0478521 -0.0478794 -0.0479042 -0.0479315 -0.0479573 -0.0479688 
275 0.0272237 0.0271631 0.0271131 0.0270716 0.0270376 0.0270098 0.0269847 0.0269584 0.0269332 0.0269205 
276 -0.2175 -0.217518 -0.21759 -0.217725 -0.217739 -0.217583 -0.217601 -0.217943 -0.218013 -0.217507 
277 -0.186072 -0.186126 -0.186173 -0.186238 -0.186287 -0.186257 -0.186226 -0.186367 -0.186545 -0.186369 
278 -0.0724529 -0.0725136 -0.0725636 -0.0726048 -0.0726389 -0.0726676 -0.0726927 -0.0727164 -0.0727414 -0.0727605 
279 -0.0430984 -0.0431591 -0.043209 -0.0432504 -0.0432848 -0.0433128 -0.0433369 -0.0433626 -0.0433898 -0.0434033 
280 -0.247225 -0.247256 -0.247459 -0.24763 -0.247429 -0.247111 -0.247395 -0.248088 -0.247925 -0.246941 
281 -0.162753 -0.162815 -0.162868 -0.162906 -0.162935 -0.162974 -0.163009 -0.163002 -0.163006 -0.163099 
282 0.0265198 0.0264592 0.0264092 0.0263677 0.0263337 0.0263058 0.0262807 0.0262546 0.0262294 0.0262162 
283 -0.130647 -0.130707 -0.130756 -0.130799 -0.130834 -0.13086 -0.13088 -0.130913 -0.130949 -0.130948 
284 0.000522953 0.000462389 0.000412322 0.000370846 0.000336851 0.00030897 0.000283897 0.000257802 0.000232509 0.00021934 
285 -0.0247997 -0.0248602 -0.0249103 -0.0249518 -0.0249858 -0.0250136 -0.0250387 -0.025065 -0.02509 -0.025103 
286 -0.242094 -0.242084 -0.242062 -0.242222 -0.242458 -0.242345 -0.241924 -0.242009 -0.242806 -0.242955 
287 -0.155318 -0.155377 -0.155429 -0.155472 -0.155501 -0.155526 -0.155567 -0.155598 -0.155581 -0.155576 
288 -0.256828 -0.256775 -0.256888 -0.257198 -0.257228 -0.256728 -0.256524 -0.25739 -0.258105 -0.257005 
289 -0.0233024 -0.023363 -0.023413 -0.0234545 -0.0234886 -0.0235164 -0.0235414 -0.0235677 -0.023593 -0.0236057 
290 -0.210041 -0.210102 -0.210146 -0.210187 -0.210244 -0.21028 -0.210243 -0.21023 -0.210388 -0.210524 
291 -0.100962 -0.101023 -0.101073 -0.101114 -0.101148 -0.101176 -0.101204 -0.101228 -0.101247 -0.101263 
292 -0.193065 -0.193123 -0.193178 -0.193222 -0.193254 -0.193285 -0.193304 -0.193298 -0.193338 -0.193469 
293 -0.0697272 -0.0697878 -0.069838 -0.0698794 -0.0699132 -0.0699412 -0.0699666 -0.0699925 -0.0700175 -0.0700308 
294 0.00364444 0.00358388 0.00353382 0.00349233 0.00345833 0.00343048 0.0034054 0.00337924 0.00335401 0.00334095 
295 -0.00915325 -0.00921381 -0.00926388 -0.00930537 -0.00933936 -0.00936721 -0.00939231 -0.00941845 -0.00944364 -0.0094568 
296 -0.128992 -0.129053 -0.129103 -0.129143 -0.129178 -0.129208 -0.129231 -0.129251 -0.129281 -0.129309 
297 -0.0645694 -0.0646299 -0.06468 -0.0647216 -0.0647555 -0.0647832 -0.0648084 -0.0648348 -0.0648598 -0.0648729 
298 -0.250634 -0.250673 -0.25064 -0.2507 -0.25092 -0.250997 -0.250672 -0.250438 -0.250984 -0.251653 
299 -0.235784 -0.235864 -0.235884 -0.23587 -0.235949 -0.236116 -0.236118 -0.235868 -0.235793 -0.236213 
300 -0.181456 -0.181516 -0.181566 -0.18161 -0.181643 -0.181665 -0.181694 -0.181738 -0.181746 -0.18171 
301 -0.278861 -0.278794 -0.278868 -0.279204 -0.279332 -0.278802 -0.278341 -0.279167 -0.280489 -0.279815 