VARIABLES = "Cell" "Mode 0" "Mode 1" "Mode 2" "Mode 3" "Mode 4" "Mode 5" "Mode 6" "Mode 7" "Mode 8" "Mode 9" 
ZONE T = Iteration57
0 0.620971 0.620338 0.619707 0.619081 0.618452 0.617819 0.617176 0.616539 0.615884 0.614982 
1 0.620779 0.620135 0.619495 0.618857 0.618218 0.617574 0.616918 0.61627 0.615601 0.614687 
2 0.59941 0.59937 0.599341 0.599323 0.59931 0.599298 0.599282 0.599279 0.599262 0.599005 
3 0.611892 0.611161 0.610487 0.609865 0.609287 0.608747 0.608236 0.607769 0.607316 0.60665 
4 0.596322 0.596553 0.596757 0.596939 0.597097 0.597234 0.597346 0.597452 0.59753 0.597353 
5 0.586394 0.58846 0.589855 0.590675 0.591089 0.591276 0.591362 0.591439 0.591509 0.591352 
6 0.652168 0.649013 0.646081 0.643353 0.640809 0.638433 0.636204 0.634129 0.632172 0.630096 
7 0.779852 0.769408 0.759675 0.750599 0.742123 0.734197 0.726774 0.719834 0.713317 0.706965 
8 0.590683 0.591087 0.591257 0.591331 0.591405 0.591522 0.591675 0.591862 0.592042 0.591978 
9 0.534429 0.54838 0.562543 0.575534 0.585801 0.592391 0.595506 0.596303 0.596023 0.595238 
10 0.666553 0.663717 0.658984 0.651324 0.640346 0.627068 0.613865 0.603269 0.596456 0.592774 
11 1.25178 1.20071 1.14644 1.08945 1.02943 0.965131 0.893796 0.812893 0.726267 0.64904 
12 2.75806 2.73726 2.69926 2.64786 2.60153 2.55957 2.52166 2.4835 2.43883 2.42584 
13 0.488213 0.49376 0.498071 0.50093 0.502402 0.501363 0.495602 0.48776 0.490383 0.515138 
14 0.864677 0.840631 0.814202 0.785601 0.754983 0.721402 0.68422 0.646466 0.615129 0.594961 
15 0.568554 0.569487 0.570366 0.571196 0.571978 0.572711 0.573393 0.574045 0.574644 0.574966 
16 0.570076 0.570333 0.570564 0.570775 0.57097 0.571152 0.57132 0.571494 0.571648 0.571555 
17 0.569679 0.569676 0.569752 0.569892 0.570069 0.57026 0.570446 0.570636 0.570803 0.570721 
18 0.578569 0.578612 0.578665 0.578726 0.578791 0.578857 0.578917 0.578989 0.579047 0.578864 
19 1.2239 1.22259 1.21957 1.21534 1.21112 1.2074 1.20369 1.19158 1.17679 1.23374 
20 0.57741 0.577467 0.577533 0.577609 0.577689 0.577769 0.577845 0.577934 0.578009 0.577843 
21 0.577658 0.577697 0.577745 0.577802 0.577861 0.577921 0.577975 0.578041 0.578092 0.577902 
22 0.503953 0.508552 0.512843 0.516854 0.520601 0.524103 0.527373 0.530446 0.533311 0.535754 
23 0.477296 0.489765 0.501473 0.512287 0.523039 0.534953 0.548047 0.560407 0.569632 0.574728 
24 0.181626 0.220558 0.258824 0.297295 0.336994 0.379177 0.425253 0.474688 0.522086 0.556426 
25 0.574011 0.572379 0.570704 0.569216 0.56813 0.567542 0.567377 0.567481 0.567672 0.567636 
26 0.565518 0.56645 0.567316 0.568054 0.568603 0.568954 0.569148 0.569273 0.569354 0.56919 
27 -0.369701 -0.354142 -0.326788 -0.292926 -0.263764 -0.235452 -0.206863 -0.184904 -0.169219 -0.117039 
28 0.934638 0.926421 0.914093 0.901364 0.889315 0.876003 0.863351 0.856997 0.849631 0.804779 
29 0.652026 0.651141 0.6486 0.644971 0.641615 0.641835 0.644048 0.629805 0.644557 0.794713 
30 -0.121467 -0.11657 -0.108101 -0.0986055 -0.0903768 -0.0818923 -0.06731 -0.0529947 -0.0579017 -0.00237878 
31 0.538289 0.538935 0.539594 0.540268 0.540951 0.541639 0.542326 0.543031 0.543726 0.544184 
32 0.549128 0.549398 0.549666 0.549932 0.550192 0.550444 0.550681 0.550924 0.551145 0.551119 
33 0.538612 0.539571 0.540485 0.541358 0.542188 0.542977 0.543721 0.54444 0.54511 0.545506 
34 0.477182 0.479934 0.483582 0.488158 0.493374 0.499622 0.5081 0.518237 0.525881 0.529657 
35 0.552821 0.547631 0.543201 0.540121 0.538679 0.538704 0.539606 0.540719 0.541595 0.541921 
36 0.541321 0.541464 0.54163 0.541817 0.542015 0.54222 0.542424 0.542644 0.542852 0.542821 
37 0.555913 0.550559 0.545445 0.541088 0.537874 0.535903 0.534968 0.534731 0.534829 0.534818 
38 0.493513 0.486894 0.482509 0.479569 0.478125 0.478682 0.480152 0.48058 0.482854 0.491396 
39 0.546808 0.546842 0.54689 0.54695 0.547018 0.547091 0.547161 0.547247 0.547322 0.547159 
40 0.534989 0.534771 0.534663 0.534643 0.534677 0.534736 0.534797 0.534871 0.534928 0.534741 
41 0.533461 0.53318 0.533031 0.532982 0.532993 0.533035 0.533082 0.533144 0.533189 0.532991 
42 0.542087 0.541883 0.541708 0.54156 0.541433 0.541322 0.541221 0.541146 0.541071 0.540767 
43 0.548523 0.541554 0.535482 0.530441 0.526099 0.521848 0.517548 0.514012 0.511928 0.510927 
44 0.43352 0.431449 0.430515 0.430817 0.431367 0.430826 0.432819 0.445822 0.466766 0.479938 
45 0.517924 0.517876 0.51785 0.517844 0.517851 0.517864 0.517877 0.517906 0.517926 0.517708 
46 0.53349 0.533677 0.533876 0.534086 0.534301 0.534519 0.534734 0.534962 0.535179 0.535157 
47 0.376168 0.373767 0.373065 0.373701 0.375688 0.377655 0.377955 0.380929 0.396364 0.42567 
48 0.507309 0.507255 0.507204 0.50716 0.50712 0.507086 0.507051 0.507035 0.507011 0.50675 
49 0.525481 0.525613 0.525756 0.525908 0.526065 0.526224 0.526378 0.526546 0.526701 0.526616 
50 0.502481 0.502095 0.501809 0.501629 0.501543 0.501526 0.501543 0.501592 0.501632 0.501432 
51 0.496304 0.496195 0.496154 0.496158 0.496186 0.496225 0.496262 0.496311 0.496345 0.496137 
52 0.526034 0.525966 0.525906 0.525855 0.525806 0.525758 0.525703 0.52566 0.525601 0.525302 
53 0.446219 0.44602 0.44607 0.446234 0.445801 0.445301 0.448105 0.455547 0.46079 0.457819 
54 0.469802 0.471339 0.472659 0.473698 0.474475 0.475046 0.47543 0.475654 0.475733 0.475498 
55 0.511347 0.511251 0.511172 0.511108 0.511055 0.511008 0.510961 0.510932 0.510893 0.510618 
56 0.498751 0.498654 0.49857 0.498501 0.498439 0.498383 0.498326 0.498285 0.498234 0.497945 
57 0.502276 0.502282 0.502296 0.502319 0.502345 0.502372 0.502394 0.502428 0.502447 0.502226 
58 0.466832 0.467247 0.467719 0.468144 0.468442 0.468605 0.468669 0.468704 0.468715 0.468488 
59 0.412028 0.412495 0.413074 0.413801 0.414548 0.415097 0.415713 0.417404 0.420916 0.425234 
60 0.497554 0.497538 0.49753 0.497531 0.497535 0.49754 0.497539 0.49755 0.497547 0.497303 
61 0.429236 0.43038 0.431338 0.43212 0.432796 0.433451 0.434114 0.434752 0.435232 0.435245 
62 0.489006 0.48901 0.489023 0.489042 0.489065 0.489086 0.489101 0.489128 0.489139 0.488909 
63 0.486111 0.486113 0.486124 0.486144 0.486169 0.486194 0.486214 0.486247 0.486266 0.486043 
64 0.462741 0.462763 0.46279 0.462824 0.462862 0.462901 0.462936 0.462984 0.463021 0.462817 
65 0.429452 0.431021 0.431985 0.43242 0.432403 0.432032 0.430755 0.427277 0.421029 0.413489 
66 0.413012 0.413848 0.414471 0.414964 0.415426 0.415797 0.415785 0.415125 0.413918 0.412558 
67 0.447693 0.447721 0.447756 0.447799 0.447846 0.447894 0.447936 0.447991 0.448032 0.447833 
68 0.460991 0.461017 0.461053 0.461098 0.461147 0.461197 0.461243 0.461302 0.461347 0.461152 
69 0.475174 0.475293 0.475422 0.475561 0.475704 0.475849 0.475989 0.476142 0.476282 0.476182 
70 0.378428 0.379143 0.379508 0.379593 0.379531 0.379151 0.377651 0.374484 0.370286 0.366591 
71 0.416435 0.416563 0.416692 0.41681 0.416909 0.416991 0.417058 0.417128 0.417177 0.41698 
72 0.455952 0.455995 0.456046 0.456106 0.45617 0.456234 0.456292 0.456362 0.456417 0.456232 
73 0.43104 0.431064 0.431095 0.431135 0.431178 0.431224 0.431266 0.431321 0.431362 0.431164 
74 0.437337 0.437377 0.437426 0.437485 0.437548 0.437612 0.43767 0.43774 0.437796 0.437611 
75 0.394978 0.394797 0.394645 0.394534 0.394458 0.394404 0.394362 0.394352 0.394358 0.394154 
76 0.454969 0.455013 0.455066 0.455129 0.455195 0.455262 0.455324 0.455399 0.45546 0.45528 
77 0.439507 0.439558 0.439618 0.439687 0.439761 0.439836 0.439906 0.43999 0.440059 0.439888 
78 0.399403 0.399371 0.399353 0.399356 0.399375 0.399407 0.399442 0.399498 0.399544 0.399352 
79 0.36249 0.362215 0.361997 0.361822 0.361681 0.361582 0.361527 0.361532 0.361555 0.361358 
80 0.453247 0.453305 0.453373 0.45345 0.453531 0.453613 0.45369 0.45378 0.453856 0.453691 
81 0.32396 0.323734 0.323578 0.323465 0.323396 0.323468 0.323793 0.324369 0.324944 0.325058 
82 0.442136 0.442185 0.442244 0.442312 0.442385 0.442458 0.442526 0.442607 0.442674 0.4425 
83 0.362085 0.361757 0.361498 0.361304 0.361147 0.361009 0.36089 0.360831 0.360819 0.360613 
84 0.350538 0.350305 0.350129 0.349993 0.349877 0.349778 0.349705 0.349692 0.349711 0.349513 
85 0.327005 0.326902 0.326826 0.326766 0.326699 0.326611 0.326514 0.326474 0.326489 0.326287 
86 0.399437 0.399464 0.399501 0.399547 0.399597 0.399648 0.399693 0.399751 0.399795 0.399598 
87 0.435631 0.435652 0.435682 0.435721 0.435763 0.435806 0.435844 0.435895 0.435931 0.435727 
88 0.279102 0.279037 0.279012 0.279017 0.27906 0.279202 0.279502 0.279943 0.28035 0.28037 
89 0.380985 0.381012 0.381048 0.381093 0.381143 0.381193 0.381238 0.381295 0.381339 0.381142 
90 0.40774 0.407771 0.40781 0.407859 0.407911 0.407965 0.408013 0.408074 0.408121 0.407927 
91 0.420253 0.42028 0.420317 0.420363 0.420413 0.420464 0.420509 0.420567 0.420611 0.420414 
92 0.343186 0.34321 0.343245 0.343289 0.343339 0.343391 0.343439 0.343501 0.343549 0.343357 
93 0.288623 0.288784 0.288931 0.289073 0.289206 0.289326 0.28942 0.289503 0.289557 0.289367 
94 0.386454 0.386484 0.386523 0.386572 0.386624 0.386677 0.386724 0.386785 0.386831 0.386636 
95 0.371601 0.371631 0.371669 0.371717 0.371768 0.371821 0.371868 0.371927 0.371973 0.371777 
96 0.321518 0.321502 0.321505 0.321525 0.32155 0.321574 0.321595 0.321637 0.321678 0.321485 
97 0.309486 0.309604 0.309718 0.309825 0.309924 0.310015 0.310094 0.310177 0.310235 0.310045 
98 0.39946 0.399489 0.399526 0.399572 0.399622 0.399674 0.399719 0.399778 0.399822 0.399625 
99 0.409858 0.409886 0.409923 0.409969 0.410019 0.410069 0.410115 0.410173 0.410216 0.410019 
100 0.283832 0.283945 0.284052 0.284156 0.284254 0.284347 0.284426 0.284507 0.284563 0.284372 
101 0.404778 0.404805 0.404841 0.404887 0.404936 0.404986 0.405031 0.405089 0.405132 0.404935 
102 0.338324 0.338359 0.338403 0.338455 0.33851 0.338566 0.338617 0.338679 0.338728 0.338536 
103 0.24403 0.244124 0.244216 0.244313 0.244406 0.24448 0.244516 0.244543 0.244561 0.244357 
104 0.251322 0.251398 0.251477 0.251561 0.251649 0.251742 0.251827 0.251914 0.251976 0.251794 
105 0.303201 0.303285 0.303371 0.303459 0.303546 0.303628 0.303696 0.303768 0.30382 0.303629 
106 0.374072 0.374106 0.374148 0.3742 0.374256 0.374312 0.374364 0.374428 0.374478 0.374287 
107 0.356287 0.356323 0.356368 0.356423 0.356481 0.35654 0.356594 0.35666 0.356712 0.356524 
108 0.378626 0.378659 0.3787 0.378751 0.378805 0.378861 0.378911 0.378974 0.379022 0.37883 
109 0.199606 0.19966 0.199721 0.199788 0.199855 0.199913 0.199951 0.199994 0.200028 0.19983 
110 0.245171 0.245214 0.245264 0.245323 0.245385 0.245447 0.245503 0.24557 0.245622 0.245433 
111 0.387311 0.387348 0.387394 0.38745 0.387509 0.387569 0.387624 0.387692 0.387745 0.387558 
112 0.223884 0.223891 0.223911 0.223944 0.223981 0.224022 0.224062 0.224121 0.224169 0.223977 
113 0.3293 0.329336 0.329381 0.329435 0.329492 0.329551 0.329604 0.32967 0.329722 0.329534 
114 0.297049 0.297085 0.297131 0.297186 0.297245 0.297304 0.297359 0.297426 0.297479 0.297292 
115 0.254475 0.254516 0.254566 0.254624 0.254685 0.254745 0.2548 0.254865 0.254917 0.254727 
116 0.323506 0.323542 0.323586 0.32364 0.323698 0.323756 0.32381 0.323876 0.323928 0.323739 
117 0.227148 0.227175 0.227213 0.227261 0.227314 0.227368 0.227418 0.227482 0.227533 0.227343 
118 0.340642 0.340677 0.340721 0.340775 0.340832 0.340891 0.340944 0.341009 0.341061 0.340872 
119 0.186299 0.186328 0.186367 0.186416 0.186468 0.18652 0.186568 0.18663 0.186679 0.186488 
120 0.356078 0.356114 0.35616 0.356215 0.356274 0.356333 0.356388 0.356455 0.356508 0.35632 
121 0.29713 0.297166 0.29721 0.297264 0.297321 0.29738 0.297433 0.297499 0.29755 0.297361 
122 0.330714 0.330749 0.330794 0.330848 0.330906 0.330964 0.331018 0.331083 0.331135 0.330947 
123 0.168149 0.168175 0.168211 0.168257 0.168308 0.168365 0.16842 0.168489 0.168542 0.168353 
124 0.360198 0.360234 0.360279 0.360333 0.36039 0.360449 0.360502 0.360568 0.360621 0.360432 
125 0.23671 0.236743 0.236785 0.236837 0.236893 0.23695 0.237003 0.237068 0.237119 0.236929 
126 0.188118 0.188151 0.188193 0.188244 0.188299 0.188355 0.188407 0.188471 0.188522 0.188331 
127 0.257446 0.257481 0.257525 0.257579 0.257636 0.257694 0.257746 0.257812 0.257863 0.257674 
128 0.299051 0.299086 0.29913 0.299183 0.29924 0.299298 0.29935 0.299415 0.299466 0.299277 
129 0.33176 0.331796 0.331841 0.331895 0.331953 0.332012 0.332066 0.332132 0.332184 0.331996 
130 0.319849 0.319885 0.31993 0.319984 0.320042 0.320101 0.320155 0.320221 0.320273 0.320084 
131 0.166029 0.166065 0.166109 0.166162 0.166219 0.166277 0.16633 0.166395 0.166446 0.166256 
132 0.123997 0.124028 0.124068 0.124117 0.124172 0.12423 0.124284 0.124351 0.124403 0.124214 
133 0.337883 0.337916 0.337958 0.338009 0.338064 0.33812 0.338171 0.338234 0.338283 0.338091 
134 0.250028 0.250062 0.250106 0.250158 0.250215 0.250272 0.250324 0.250389 0.25044 0.25025 
135 0.158843 0.158878 0.158921 0.158974 0.159031 0.159088 0.15914 0.159205 0.159256 0.159065 
136 0.22825 0.228284 0.228327 0.228378 0.228434 0.228491 0.228542 0.228606 0.228656 0.228466 
137 0.27011 0.270144 0.270187 0.270239 0.270296 0.270353 0.270405 0.270469 0.270519 0.270329 
138 0.0928182 0.0928533 0.0928976 0.0929509 0.0930079 0.0930654 0.0931173 0.0931819 0.0932328 0.0930431 
139 0.30279 0.302825 0.302868 0.302921 0.302977 0.303034 0.303086 0.303151 0.303202 0.303012 
140 0.287085 0.287119 0.287162 0.287214 0.28727 0.287327 0.287379 0.287444 0.287494 0.287303 
141 0.18867 0.188704 0.188747 0.1888 0.188856 0.188913 0.188965 0.18903 0.189081 0.18889 
142 0.125057 0.125092 0.125136 0.125189 0.125245 0.125303 0.125355 0.12542 0.125471 0.125281 
143 0.312425 0.312459 0.312503 0.312555 0.312611 0.312668 0.31272 0.312785 0.312835 0.312645 
144 0.154658 0.154692 0.154736 0.154788 0.154845 0.154902 0.154954 0.155019 0.155069 0.154879 
145 0.237187 0.237221 0.237264 0.237316 0.237372 0.237429 0.237481 0.237546 0.237596 0.237406 
146 0.0945981 0.0946325 0.0946761 0.0947289 0.0947856 0.0948433 0.0948958 0.0949607 0.0950116 0.094822 
147 0.295012 0.295046 0.29509 0.295142 0.295199 0.295256 0.295308 0.295372 0.295423 0.295233 
148 0.118168 0.118202 0.118246 0.118299 0.118356 0.118413 0.118466 0.118531 0.118582 0.118392 
149 0.276646 0.27668 0.276723 0.276775 0.276832 0.276889 0.27694 0.277005 0.277055 0.276865 
150 0.260758 0.260792 0.260835 0.260888 0.260944 0.261001 0.261053 0.261118 0.261168 0.260978 
151 0.186735 0.186769 0.186812 0.186865 0.186921 0.186978 0.18703 0.187095 0.187145 0.186955 
152 0.0472106 0.0472454 0.0472893 0.0473424 0.0473992 0.0474567 0.047509 0.0475738 0.0476248 0.0474352 
153 0.291068 0.291102 0.291146 0.291199 0.291256 0.291314 0.291366 0.291432 0.291483 0.291293 
154 0.0520161 0.0520507 0.0520944 0.0521473 0.052204 0.0522616 0.0523141 0.052379 0.05243 0.0522402 
155 0.263064 0.263099 0.263142 0.263195 0.263252 0.26331 0.263362 0.263427 0.263478 0.263289 
156 0.0841673 0.0842018 0.0842456 0.0842985 0.0843553 0.084413 0.0844655 0.0845305 0.0845817 0.0843919 
157 0.104348 0.104382 0.104426 0.104479 0.104536 0.104593 0.104646 0.10471 0.104762 0.104572 
158 0.242731 0.242765 0.242809 0.242862 0.242918 0.242976 0.243028 0.243093 0.243144 0.242954 
159 0.0253304 0.0253648 0.0254084 0.0254613 0.025518 0.0255757 0.0256281 0.0256931 0.0257441 0.0255545 
160 0.19535 0.195384 0.195428 0.195481 0.195538 0.195595 0.195648 0.195713 0.195764 0.195574 
161 0.230325 0.23036 0.230404 0.230457 0.230514 0.230572 0.230624 0.230689 0.230741 0.230551 
162 0.150723 0.150758 0.150802 0.150855 0.150912 0.150969 0.151022 0.151087 0.151138 0.150948 
163 0.263596 0.263631 0.263675 0.263728 0.263784 0.263842 0.263894 0.263959 0.26401 0.263821 
164 0.235803 0.235838 0.235881 0.235934 0.235991 0.236049 0.236101 0.236166 0.236218 0.236028 
165 0.0487161 0.0487506 0.0487942 0.0488471 0.0489038 0.0489615 0.0490139 0.0490789 0.0491299 0.04894 
166 0.155633 0.155668 0.155711 0.155764 0.155821 0.155878 0.155931 0.155996 0.156047 0.155857 
167 -0.011668 -0.0116336 -0.01159 -0.0115372 -0.0114804 -0.0114229 -0.0113708 -0.0113058 -0.0112544 -0.0114444 
168 0.244055 0.244089 0.244132 0.244185 0.244241 0.244298 0.24435 0.244415 0.244466 0.244276 
169 0.196844 0.196878 0.196922 0.196975 0.197032 0.197089 0.197142 0.197207 0.197258 0.197068 
170 0.0804844 0.080519 0.0805627 0.0806156 0.0806723 0.08073 0.0807824 0.0808473 0.0808984 0.0807087 
171 0.101963 0.101998 0.102041 0.102094 0.102151 0.102209 0.102261 0.102326 0.102377 0.102187 
172 0.17977 0.179804 0.179848 0.179901 0.179957 0.180015 0.180067 0.180132 0.180183 0.179994 
173 0.0191101 0.0191445 0.0191881 0.0192409 0.0192975 0.0193551 0.0194074 0.0194722 0.0195232 0.0193333 
174 0.210941 0.210976 0.211019 0.211072 0.211128 0.211186 0.211238 0.211303 0.211354 0.211164 
175 0.217638 0.217672 0.217716 0.217768 0.217825 0.217882 0.217935 0.217999 0.21805 0.21786 
176 -0.0315166 -0.0314821 -0.0314386 -0.0313858 -0.0313291 -0.0312715 -0.0312194 -0.0311547 -0.0311034 -0.0312928 
177 0.118871 0.118906 0.118949 0.119002 0.119059 0.119116 0.119169 0.119234 0.119285 0.119095 
178 0.0364184 0.0364528 0.0364964 0.0365493 0.0366059 0.0366635 0.0367158 0.0367807 0.0368317 0.0366418 
179 0.173811 0.173846 0.173889 0.173942 0.173999 0.174056 0.174109 0.174173 0.174224 0.174034 
180 0.0168626 0.0168971 0.0169407 0.0169935 0.0170501 0.0171077 0.01716 0.0172249 0.0172758 0.017086 
181 -0.0155569 -0.0155225 -0.0154788 -0.0154261 -0.0153695 -0.0153118 -0.0152595 -0.0151949 -0.0151439 -0.0153333 
182 0.186332 0.186367 0.18641 0.186463 0.18652 0.186577 0.18663 0.186694 0.186745 0.186556 
183 0.205204 0.205238 0.205282 0.205335 0.205391 0.205449 0.205501 0.205566 0.205617 0.205427 
184 0.0723465 0.0723809 0.0724245 0.0724773 0.0725339 0.0725914 0.0726437 0.0727085 0.0727595 0.0725696 
185 0.141179 0.141213 0.141257 0.141309 0.141366 0.141424 0.141476 0.141541 0.141592 0.141402 
186 0.0848148 0.0848493 0.0848929 0.0849457 0.0850023 0.0850599 0.0851122 0.0851771 0.085228 0.0850382 
187 0.118739 0.118774 0.118817 0.11887 0.118927 0.118984 0.119037 0.119101 0.119152 0.118963 
188 -0.0167083 -0.0166739 -0.0166303 -0.0165774 -0.0165208 -0.0164633 -0.0164109 -0.016346 -0.0162951 -0.0164852 
189 0.19772 0.197755 0.197798 0.197851 0.197908 0.197965 0.198018 0.198083 0.198134 0.197944 
190 0.167838 0.167873 0.167917 0.167969 0.168026 0.168084 0.168136 0.168201 0.168252 0.168062 
191 -0.0723826 -0.0723481 -0.0723045 -0.0722517 -0.0721951 -0.0721374 -0.072085 -0.0720206 -0.0719698 -0.0721588 
192 -0.0375433 -0.0375089 -0.0374652 -0.0374124 -0.0373559 -0.0372983 -0.0372458 -0.037181 -0.0371304 -0.0373201 
193 0.0155491 0.0155836 0.0156272 0.01568 0.0157366 0.0157942 0.0158465 0.0159114 0.0159623 0.0157724 
194 0.17697 0.177004 0.177048 0.177101 0.177157 0.177215 0.177267 0.177332 0.177383 0.177193 
195 0.137355 0.137389 0.137433 0.137486 0.137542 0.1376 0.137652 0.137717 0.137768 0.137578 
196 0.120145 0.120179 0.120223 0.120276 0.120332 0.12039 0.120442 0.120507 0.120558 0.120368 
197 0.0310156 0.03105 0.0310937 0.0311465 0.0312031 0.0312606 0.031313 0.0313778 0.0314288 0.0312389 
198 -0.06488 -0.0648456 -0.0648019 -0.0647491 -0.0646926 -0.0646351 -0.0645825 -0.0645174 -0.0644672 -0.0646577 
199 0.0851627 0.0851971 0.0852407 0.0852935 0.0853502 0.0854077 0.08546 0.0855249 0.0855759 0.085386 
200 0.165997 0.166032 0.166075 0.166128 0.166185 0.166242 0.166295 0.16636 0.166411 0.166221 
201 -0.0844609 -0.0844265 -0.0843828 -0.08433 -0.0842735 -0.0842159 -0.0841632 -0.0840986 -0.0840484 -0.0842379 
202 0.05293 0.0529644 0.053008 0.0530609 0.0531175 0.053175 0.0532273 0.0532922 0.0533432 0.0531533 
203 0.175105 0.17514 0.175183 0.175236 0.175293 0.17535 0.175403 0.175468 0.175519 0.175329 
204 -0.0343672 -0.0343328 -0.0342891 -0.0342363 -0.0341797 -0.0341221 -0.0340699 -0.0340049 -0.0339539 -0.0341439 
205 0.138344 0.138378 0.138422 0.138475 0.138531 0.138589 0.138641 0.138706 0.138757 0.138567 
206 0.119447 0.119482 0.119525 0.119578 0.119635 0.119692 0.119745 0.11981 0.119861 0.119671 
207 -0.0202087 -0.0201742 -0.0201306 -0.0200778 -0.0200211 -0.0199636 -0.0199113 -0.0198464 -0.0197955 -0.0199853 
208 0.0873924 0.0874269 0.0874705 0.0875233 0.0875799 0.0876375 0.0876898 0.0877547 0.0878056 0.0876158 
209 0.0540478 0.0540822 0.0541258 0.0541786 0.0542353 0.0542928 0.0543451 0.05441 0.054461 0.0542711 
210 0.0194133 0.0194477 0.0194913 0.0195442 0.0196008 0.0196583 0.0197106 0.0197755 0.0198265 0.0196366 
211 -0.0861971 -0.0861627 -0.0861191 -0.0860662 -0.0860096 -0.0859522 -0.0858999 -0.0858346 -0.0857836 -0.0859743 
212 -0.117201 -0.117167 -0.117123 -0.11707 -0.117013 -0.116956 -0.116904 -0.116839 -0.116788 -0.116978 
213 0.143907 0.143942 0.143985 0.144038 0.144095 0.144152 0.144205 0.14427 0.144321 0.144131 
214 0.159977 0.160011 0.160055 0.160108 0.160165 0.160222 0.160274 0.160339 0.16039 0.1602 
215 -0.0750638 -0.0750294 -0.0749858 -0.0749329 -0.0748763 -0.0748187 -0.0747666 -0.0747016 -0.0746503 -0.0748403 
216 0.124677 0.124711 0.124755 0.124808 0.124864 0.124922 0.124974 0.125039 0.12509 0.1249 
217 -0.11925 -0.119215 -0.119172 -0.119119 -0.119062 -0.119005 -0.118953 -0.118888 -0.118836 -0.119026 
218 0.0585795 0.0586139 0.0586575 0.0587104 0.058767 0.0588245 0.0588769 0.0589417 0.0589927 0.0588028 
219 -0.0109687 -0.0109342 -0.0108906 -0.0108378 -0.0107812 -0.0107236 -0.0106713 -0.0106064 -0.0105555 -0.0107453 
220 0.141366 0.141401 0.141444 0.141497 0.141554 0.141611 0.141663 0.141728 0.141779 0.141589 
221 0.0839729 0.0840074 0.084051 0.0841038 0.0841604 0.084218 0.0842703 0.0843352 0.0843861 0.0841963 
222 -0.052316 -0.0522815 -0.0522379 -0.0521851 -0.0521285 -0.0520709 -0.0520186 -0.0519537 -0.0519028 -0.0520926 
223 0.0198792 0.0199137 0.0199573 0.0200101 0.0200668 0.0201243 0.0201766 0.0202415 0.0202925 0.0201026 
224 0.058438 0.0584725 0.0585161 0.0585689 0.0586255 0.0586831 0.0587354 0.0588003 0.0588512 0.0586614 
225 -0.0462667 -0.0462323 -0.0461887 -0.0461358 -0.0460792 -0.0460217 -0.0459694 -0.0459045 -0.0458535 -0.0460434 
226 0.0994948 0.0995293 0.0995729 0.0996257 0.0996823 0.0997399 0.0997922 0.0998571 0.0999081 0.0997182 
227 -0.0983433 -0.0983088 -0.0982652 -0.0982124 -0.0981558 -0.0980982 -0.0980459 -0.0979811 -0.0979301 -0.0981198 
228 0.022307 0.0223414 0.022385 0.0224379 0.0224945 0.022552 0.0226043 0.0226692 0.0227202 0.0225303 
229 -0.0122347 -0.0122002 -0.0121566 -0.0121038 -0.0120471 -0.0119896 -0.0119373 -0.0118724 -0.0118214 -0.0120113 
230 0.0770776 0.077112 0.0771557 0.0772085 0.0772651 0.0773227 0.077375 0.0774399 0.0774908 0.0773009 
231 -0.143773 -0.143739 -0.143695 -0.143643 -0.143586 -0.143528 -0.143476 -0.143412 -0.14336 -0.143549 
232 -0.088247 -0.0882126 -0.0881689 -0.0881161 -0.0880595 -0.0880019 -0.0879496 -0.0878848 -0.0878338 -0.0880236 
233 0.119951 0.119985 0.120029 0.120082 0.120138 0.120196 0.120248 0.120313 0.120364 0.120174 
234 0.0967637 0.0967982 0.0968418 0.0968946 0.0969512 0.0970088 0.0970611 0.097126 0.0971769 0.0969871 
235 -0.132859 -0.132824 -0.132781 -0.132728 -0.132671 -0.132614 -0.132561 -0.132496 -0.132446 -0.132635 
236 0.110245 0.11028 0.110323 0.110376 0.110433 0.11049 0.110543 0.110608 0.110659 0.110469 
237 -0.172789 -0.172754 -0.172711 -0.172658 -0.172601 -0.172544 -0.172492 -0.172427 -0.172375 -0.172566 
238 -0.0754677 -0.0754333 -0.0753897 -0.0753369 -0.0752802 -0.0752227 -0.0751704 -0.0751055 -0.0750545 -0.0752444 
239 0.0301906 0.030225 0.0302687 0.0303215 0.0303781 0.0304357 0.030488 0.0305528 0.0306038 0.0304139 
240 -0.0432621 -0.0432277 -0.0431841 -0.0431312 -0.0430746 -0.0430171 -0.0429648 -0.0428999 -0.0428489 -0.0430388 
241 0.0491404 0.0491748 0.0492185 0.0492713 0.0493279 0.0493855 0.0494378 0.0495026 0.0495536 0.0493637 
242 0.0742255 0.0742599 0.0743036 0.0743564 0.074413 0.0744705 0.0745229 0.0745877 0.0746387 0.0744488 
243 -0.0710731 -0.0710387 -0.0709951 -0.0709422 -0.0708856 -0.0708281 -0.0707757 -0.0707109 -0.0706599 -0.0708498 
244 -0.120514 -0.12048 -0.120436 -0.120383 -0.120327 -0.120269 -0.120217 -0.120152 -0.120101 -0.120291 
245 -0.0110746 -0.0110401 -0.0109965 -0.0109437 -0.0108871 -0.0108295 -0.0107772 -0.0107123 -0.0106614 -0.0108512 
246 0.0276021 0.0276366 0.0276802 0.027733 0.0277896 0.0278472 0.0278995 0.0279644 0.0280153 0.0278255 
247 -0.112992 -0.112958 -0.112914 -0.112861 -0.112805 -0.112747 -0.112695 -0.11263 -0.112579 -0.112769 
248 0.048465 0.0484994 0.0485431 0.0485959 0.0486525 0.0487101 0.0487624 0.0488272 0.0488782 0.0486883 
249 -0.0028646 -0.00283015 -0.00278653 -0.0027337 -0.00267709 -0.00261954 -0.00256722 -0.00250235 -0.00245139 -0.00264125 
250 -0.159848 -0.159813 -0.15977 -0.159717 -0.15966 -0.159603 -0.15955 -0.159486 -0.159435 -0.159625 
251 0.0810168 0.0810512 0.0810948 0.0811477 0.0812043 0.0812618 0.0813141 0.081379 0.08143 0.0812401 
252 -0.191945 -0.191911 -0.191867 -0.191814 -0.191757 -0.1917 -0.191648 -0.191583 -0.191531 -0.191721 
253 0.0674111 0.0674455 0.0674892 0.067542 0.0675986 0.0676561 0.0677085 0.0677733 0.0678243 0.0676344 
254 -0.0444206 -0.0443862 -0.0443425 -0.0442897 -0.0442331 -0.0441755 -0.0441232 -0.0440584 -0.0440074 -0.0441973 
255 -0.156041 -0.156006 -0.155963 -0.15591 -0.155853 -0.155796 -0.155743 -0.155678 -0.155628 -0.155818 
256 -0.189053 -0.189018 -0.188975 -0.188922 -0.188865 -0.188807 -0.188755 -0.188691 -0.18864 -0.188828 
257 -0.000116933 -8.24896e-05 -3.88692e-05 1.39583e-05 7.05753e-05 0.000128126 0.000180441 0.000245317 0.000296271 0.000106409 
258 -0.217367 -0.217333 -0.21729 -0.217237 -0.21718 -0.217122 -0.217071 -0.217006 -0.216953 -0.217143 
259 -0.102208 -0.102174 -0.10213 -0.102077 -0.102021 -0.101963 -0.101911 -0.101846 -0.101795 -0.101985 
260 0.066773 0.0668075 0.0668511 0.0669039 0.0669606 0.0670181 0.0670704 0.0671353 0.0671863 0.0669964 
261 -0.0209204 -0.020886 -0.0208423 -0.0207895 -0.0207329 -0.0206753 -0.020623 -0.0205582 -0.0205072 -0.0206971 
262 0.0272424 0.0272769 0.0273205 0.0273733 0.02743 0.0274875 0.0275398 0.0276047 0.0276557 0.0274658 
263 0.0399175 0.039952 0.0399956 0.0400484 0.040105 0.0401626 0.0402149 0.0402798 0.0403307 0.0401409 
264 -0.144797 -0.144762 -0.144719 -0.144666 -0.144609 -0.144552 -0.144499 -0.144434 -0.144383 -0.144573 
265 -0.0740531 -0.0740187 -0.0739751 -0.0739222 -0.0738656 -0.0738081 -0.0737557 -0.0736909 -0.0736399 -0.0738298 
266 -0.213057 -0.213023 -0.212979 -0.212927 -0.21287 -0.212812 -0.21276 -0.212696 -0.212645 -0.212833 
267 -0.0139155 -0.013881 -0.0138374 -0.0137846 -0.013728 -0.0136704 -0.0136181 -0.0135532 -0.0135023 -0.0136921 
268 -0.137767 -0.137733 -0.137689 -0.137636 -0.13758 -0.137522 -0.13747 -0.137405 -0.137354 -0.137544 
269 -0.227957 -0.227922 -0.227879 -0.227826 -0.227769 -0.227711 -0.22766 -0.227596 -0.227544 -0.227731 
270 -0.103783 -0.103749 -0.103705 -0.103653 -0.103596 -0.103538 -0.103486 -0.103421 -0.10337 -0.10356 
271 -7.89649e-05 -4.45212e-05 -9.00861e-07 5.19268e-05 0.000108544 0.000166095 0.00021841 0.000283286 0.00033424 0.000144377 
272 -0.192709 -0.192675 -0.192631 -0.192578 -0.192521 -0.192464 -0.192412 -0.192347 -0.192296 -0.192486 
273 0.0394636 0.039498 0.0395417 0.0395945 0.0396511 0.0397087 0.039761 0.0398259 0.0398768 0.0396869 
274 -0.0494414 -0.0494069 -0.0493633 -0.0493105 -0.0492539 -0.0491963 -0.049144 -0.0490791 -0.0490282 -0.049218 
275 0.0254481 0.0254825 0.0255261 0.025579 0.0256356 0.0256931 0.0257455 0.0258103 0.0258613 0.0256714 
276 -0.219272 -0.219237 -0.219194 -0.219141 -0.219084 -0.219027 -0.218974 -0.218909 -0.218859 -0.219049 
277 -0.187847 -0.187812 -0.187768 -0.187716 -0.187659 -0.187601 -0.187549 -0.187484 -0.187433 -0.187623 
278 -0.0742286 -0.0741941 -0.0741505 -0.0740977 -0.0740411 -0.0739835 -0.0739312 -0.0738663 -0.0738154 -0.0740052 
279 -0.0448741 -0.0448396 -0.044796 -0.0447432 -0.0446865 -0.044629 -0.0445767 -0.0445118 -0.0444608 -0.0446507 
280 -0.249053 -0.249018 -0.248975 -0.248922 -0.248866 -0.248807 -0.248756 -0.248692 -0.24864 -0.248827 
281 -0.16453 -0.164496 -0.164452 -0.164399 -0.164343 -0.164285 -0.164233 -0.164168 -0.164117 -0.164307 
282 0.0247442 0.0247786 0.0248222 0.0248751 0.0249317 0.0249892 0.0250415 0.0251064 0.0251574 0.0249675 
283 -0.132422 -0.132388 -0.132344 -0.132291 -0.132235 -0.132177 -0.132125 -0.13206 -0.132009 -0.132199 
284 -0.00125267 -0.00121823 -0.00117461 -0.00112178 -0.00106516 -0.00100761 -0.000955299 -0.000890423 -0.000839469 -0.00102933 
285 -0.0265753 -0.0265409 -0.0264972 -0.0264444 -0.0263878 -0.0263302 -0.0262779 -0.026213 -0.0261621 -0.026352 
286 -0.243829 -0.243795 -0.243751 -0.243698 -0.243642 -0.243584 -0.243531 -0.243466 -0.243417 -0.243607 
287 -0.157093 -0.157059 -0.157015 -0.156962 -0.156906 -0.156848 -0.156796 -0.156731 -0.15668 -0.15687 
288 -0.258604 -0.25857 -0.258526 -0.258473 -0.258417 -0.258359 -0.258306 -0.258242 -0.258192 -0.25838 
289 -0.025078 -0.0250436 -0.025 -0.0249472 -0.0248905 -0.024833 -0.0247807 -0.0247158 -0.0246648 -0.0248547 
290 -0.211816 -0.211782 -0.211738 -0.211685 -0.211629 -0.211571 -0.211519 -0.211454 -0.211403 -0.211593 
291 -0.102738 -0.102703 -0.10266 -0.102607 -0.10255 -0.102493 -0.10244 -0.102376 -0.102325 -0.102514 
292 -0.194842 -0.194808 -0.194764 -0.194711 -0.194655 -0.194597 -0.194545 -0.19448 -0.194429 -0.194619 
293 -0.0715029 -0.0714684 -0.0714248 -0.071372 -0.0713154 -0.0712578 -0.0712055 -0.0711406 -0.0710897 -0.0712795 
294 0.00186882 0.00190326 0.00194688 0.00199971 0.00205632 0.00211388 0.00216619 0.00223107 0.00228202 0.00209216 
295 -0.0109289 -0.0108944 -0.0108508 -0.010798 -0.0107414 -0.0106838 -0.0106315 -0.0105666 -0.0105157 -0.0107055 
296 -0.130768 -0.130733 -0.130689 -0.130637 -0.13058 -0.130522 -0.13047 -0.130405 -0.130354 -0.130544 
297 -0.066345 -0.0663106 -0.0662669 -0.0662141 -0.0661575 -0.0660999 -0.0660476 -0.0659828 -0.0659318 -0.0661217 
298 -0.252378 -0.252343 -0.2523 -0.252247 -0.25219 -0.252133 -0.25208 -0.252015 -0.251964 -0.252155 
299 -0.237554 -0.23752 -0.237476 -0.237423 -0.237367 -0.237309 -0.237257 -0.237192 -0.237141 -0.237331 
300 -0.183232 -0.183197 -0.183154 -0.183101 -0.183044 -0.182987 -0.182934 -0.182869 -0.182818 -0.183008 
301 -0.280621 -0.280587 -0.280543 -0.280491 -0.280434 -0.280376 -0.280323 -0.280259 -0.28021 -0.280397 