VARIABLES = "Cell" "Mode 0" "Mode 1" "Mode 2" "Mode 3" "Mode 4" "Mode 5" "Mode 6" "Mode 7" "Mode 8" "Mode 9" 
ZONE T = Iteration49
0 0.615884 0.614982 0.614085 0.613869 0.614033 0.613799 0.613134 0.612323 0.611494 0.610673 
1 0.615601 0.614687 0.613777 0.613547 0.613696 0.613448 0.612768 0.611941 0.611097 0.610259 
2 0.599262 0.599005 0.598757 0.599194 0.600015 0.600444 0.600445 0.600304 0.600149 0.600005 
3 0.607316 0.60665 0.606018 0.606094 0.606575 0.606685 0.606384 0.605959 0.605536 0.605138 
4 0.59753 0.597353 0.597174 0.597669 0.598539 0.599009 0.599043 0.598928 0.598793 0.598664 
5 0.591509 0.591352 0.591213 0.591765 0.592698 0.593232 0.593326 0.593264 0.59318 0.593107 
6 0.632172 0.630096 0.628143 0.626979 0.626297 0.625314 0.623987 0.622596 0.621264 0.620012 
7 0.713317 0.706965 0.700999 0.696069 0.69185 0.687542 0.68309 0.678759 0.67466 0.670801 
8 0.592042 0.591978 0.591917 0.592533 0.593522 0.594106 0.59425 0.594245 0.594223 0.594219 
9 0.596023 0.595238 0.594507 0.594559 0.595079 0.595269 0.59509 0.594825 0.594601 0.594434 
10 0.596456 0.592774 0.591271 0.591554 0.592677 0.593557 0.594041 0.594374 0.594672 0.594951 
11 0.726267 0.64904 0.597939 0.574721 0.568466 0.569282 0.572393 0.575903 0.579235 0.582248 
12 2.43883 2.42584 2.42509 2.24911 1.28505 0.28054 -0.00258446 0.0299298 0.122119 0.209059 
13 0.490383 0.515138 0.55116 0.577168 0.590014 0.595409 0.596738 0.596675 0.596285 0.595835 
14 0.615129 0.594961 0.585124 0.582356 0.583049 0.584539 0.585928 0.587178 0.588317 0.589342 
15 0.574644 0.574966 0.575263 0.576215 0.577521 0.578408 0.578842 0.57911 0.579343 0.579567 
16 0.571648 0.571555 0.571467 0.57206 0.573032 0.573608 0.573751 0.573749 0.573729 0.573719 
17 0.570803 0.570721 0.570641 0.571239 0.572217 0.572799 0.57295 0.572956 0.572946 0.572943 
18 0.579047 0.578864 0.57869 0.579202 0.580097 0.5806 0.580675 0.580608 0.580527 0.580457 
19 1.17679 1.23374 1.2794 0.685865 -0.0451941 -0.165804 -0.035817 0.114141 0.231626 0.318473 
20 0.578009 0.577843 0.577687 0.578217 0.579131 0.579654 0.579749 0.579702 0.579643 0.579596 
21 0.578092 0.577902 0.57772 0.578224 0.579111 0.579605 0.579672 0.579596 0.579506 0.579427 
22 0.533311 0.535754 0.538039 0.540855 0.54391 0.546439 0.548416 0.550134 0.551731 0.553239 
23 0.569632 0.574728 0.576848 0.577971 0.57873 0.578842 0.578483 0.578015 0.577584 0.577212 
24 0.522086 0.556426 0.574951 0.582935 0.585428 0.58508 0.58353 0.581754 0.580083 0.578579 
25 0.567672 0.567636 0.567593 0.568217 0.569208 0.569793 0.569939 0.569936 0.569916 0.569909 
26 0.569354 0.56919 0.569036 0.569569 0.570484 0.571007 0.5711 0.571053 0.570995 0.570953 
27 -0.169219 -0.117039 0.064476 0.381429 0.518929 0.586461 0.603543 0.602143 0.597184 0.591642 
28 0.849631 0.804779 0.70011 0.606064 0.564472 0.546593 0.542509 0.543543 0.545735 0.548014 
29 0.644557 0.794713 0.691603 0.485714 0.495998 0.516711 0.540374 0.552396 0.552012 0.551512 
30 -0.0579017 -0.00237878 0.203356 0.265708 0.612259 0.898998 0.938564 0.882829 0.798261 0.732659 
31 0.543726 0.544184 0.544656 0.545818 0.547368 0.54853 0.549268 0.549868 0.550459 0.551064 
32 0.551145 0.551119 0.551096 0.551753 0.552789 0.553428 0.553635 0.553696 0.55374 0.553791 
33 0.54511 0.545506 0.545882 0.546915 0.548306 0.549279 0.549802 0.550162 0.550488 0.550806 
34 0.525881 0.529657 0.530672 0.530994 0.531448 0.531631 0.531442 0.531082 0.530718 0.530399 
35 0.541595 0.541921 0.542041 0.542735 0.543762 0.544364 0.544514 0.544505 0.544473 0.544453 
36 0.542852 0.542821 0.5428 0.543466 0.544517 0.545176 0.545408 0.545497 0.545574 0.545661 
37 0.534829 0.534818 0.53484 0.535534 0.536592 0.537235 0.537429 0.537459 0.537459 0.537459 
38 0.482854 0.491396 0.503071 0.512167 0.517149 0.518623 0.518194 0.517624 0.517192 0.516815 
39 0.547322 0.547159 0.547008 0.547546 0.54847 0.549004 0.549113 0.549083 0.549041 0.549013 
40 0.534928 0.534741 0.534561 0.535066 0.535956 0.536455 0.536527 0.536459 0.536379 0.53631 
41 0.533189 0.532991 0.532802 0.533298 0.534179 0.53467 0.534736 0.534663 0.534576 0.534498 
42 0.541071 0.540767 0.540483 0.540897 0.541704 0.54213 0.542137 0.54201 0.541879 0.541766 
43 0.511928 0.510927 0.510722 0.511484 0.512644 0.513373 0.513654 0.513776 0.513864 0.513946 
44 0.466766 0.479938 0.483394 0.467294 0.473236 0.541378 0.524468 0.489976 0.487006 0.485475 
45 0.517926 0.517708 0.517503 0.517986 0.518856 0.519337 0.519392 0.519308 0.519212 0.51913 
46 0.535179 0.535157 0.535146 0.535822 0.536884 0.537556 0.537802 0.537907 0.538001 0.538108 
47 0.396364 0.42567 0.456714 0.470843 0.46326 0.462489 0.476291 0.483155 0.483065 0.482519 
48 0.507011 0.50675 0.506504 0.506947 0.507778 0.50822 0.508237 0.508115 0.507982 0.507864 
49 0.526701 0.526616 0.526542 0.527155 0.528153 0.52876 0.52894 0.52898 0.529008 0.529049 
50 0.501632 0.501432 0.501242 0.501737 0.502619 0.503111 0.503175 0.503096 0.503 0.502909 
51 0.496345 0.496137 0.495939 0.496426 0.497301 0.497786 0.497846 0.497765 0.497671 0.497586 
52 0.525601 0.525302 0.525011 0.525404 0.526181 0.526566 0.526522 0.526335 0.526135 0.525945 
53 0.46079 0.457819 0.447002 0.438452 0.459226 0.475562 0.458317 0.446449 0.445568 0.445315 
54 0.475733 0.475498 0.475244 0.475672 0.476489 0.476924 0.476937 0.47681 0.476665 0.476525 
55 0.510893 0.510618 0.510356 0.510784 0.511599 0.512026 0.512028 0.511892 0.511745 0.511612 
56 0.498234 0.497945 0.49767 0.498083 0.498883 0.499294 0.49928 0.499126 0.498962 0.498811 
57 0.502447 0.502226 0.502014 0.502487 0.503345 0.50381 0.503847 0.503743 0.503625 0.503519 
58 0.468715 0.468488 0.468278 0.468759 0.469628 0.470107 0.47016 0.470072 0.469968 0.469872 
59 0.420916 0.425234 0.428238 0.429196 0.429728 0.431094 0.432348 0.432617 0.432446 0.432249 
60 0.497547 0.497303 0.497067 0.497517 0.498351 0.498793 0.498807 0.498678 0.498536 0.498405 
61 0.435232 0.435245 0.435084 0.435569 0.436481 0.437005 0.437061 0.436946 0.436811 0.436686 
62 0.489139 0.488909 0.488687 0.48915 0.489996 0.490449 0.490474 0.490356 0.490224 0.490104 
63 0.486266 0.486043 0.485831 0.486304 0.487162 0.487627 0.487665 0.487561 0.487444 0.487338 
64 0.463021 0.462817 0.462625 0.463118 0.463998 0.464485 0.464546 0.464466 0.464373 0.464292 
65 0.421029 0.413489 0.408006 0.406057 0.405566 0.405157 0.405018 0.404993 0.404983 0.404994 
66 0.413918 0.412558 0.411848 0.412287 0.413003 0.413134 0.412948 0.412807 0.412715 0.412641 
67 0.448032 0.447833 0.447645 0.448142 0.449024 0.449514 0.449578 0.4495 0.449409 0.44933 
68 0.461347 0.461152 0.460967 0.461467 0.462353 0.462846 0.462913 0.462838 0.46275 0.462674 
69 0.476282 0.476182 0.476092 0.476688 0.47767 0.478259 0.478422 0.478444 0.478452 0.478474 
70 0.370286 0.366591 0.364938 0.36408 0.362631 0.362593 0.363841 0.364383 0.364398 0.364391 
71 0.417177 0.41698 0.416792 0.417292 0.418176 0.418668 0.418732 0.418654 0.418563 0.418485 
72 0.456417 0.456232 0.456055 0.456564 0.457456 0.457957 0.458029 0.45796 0.457877 0.457805 
73 0.431362 0.431164 0.430976 0.431474 0.432356 0.432847 0.43291 0.432833 0.432742 0.432664 
74 0.437796 0.437611 0.437436 0.437946 0.43884 0.439342 0.439416 0.439348 0.439267 0.439198 
75 0.394358 0.394154 0.393973 0.394477 0.395362 0.395858 0.395932 0.395869 0.395797 0.39574 
76 0.45546 0.45528 0.45511 0.455625 0.456525 0.457033 0.457113 0.457052 0.456978 0.456915 
77 0.440059 0.439888 0.439727 0.440251 0.441161 0.441678 0.441768 0.441717 0.441653 0.4416 
78 0.399544 0.399352 0.399169 0.399672 0.400559 0.401055 0.401125 0.401053 0.400969 0.4009 
79 0.361555 0.361358 0.361179 0.361685 0.362575 0.363081 0.36317 0.363124 0.363062 0.363011 
80 0.453856 0.453691 0.453536 0.454067 0.454982 0.455506 0.455602 0.455557 0.455498 0.455451 
81 0.324944 0.325058 0.32504 0.325787 0.326886 0.327384 0.327373 0.327272 0.327192 0.327133 
82 0.442674 0.4425 0.442336 0.442858 0.443764 0.444278 0.444365 0.44431 0.444242 0.444186 
83 0.360819 0.360613 0.360432 0.360932 0.361816 0.362317 0.362401 0.36235 0.362291 0.362242 
84 0.349711 0.349513 0.349328 0.349827 0.350716 0.35122 0.351303 0.351249 0.351183 0.351126 
85 0.326489 0.326287 0.326054 0.326496 0.327385 0.327934 0.328044 0.327986 0.327908 0.327846 
86 0.399795 0.399598 0.39941 0.399908 0.400791 0.401281 0.401343 0.401264 0.401172 0.401091 
87 0.435931 0.435727 0.435531 0.436022 0.436896 0.437379 0.437434 0.437347 0.437247 0.437158 
88 0.28035 0.28037 0.280326 0.28101 0.282022 0.282492 0.282491 0.28239 0.282304 0.282244 
89 0.381339 0.381142 0.380954 0.381452 0.382334 0.382824 0.382886 0.382807 0.382715 0.382634 
90 0.408121 0.407927 0.407742 0.408243 0.409129 0.409622 0.409688 0.409612 0.409523 0.409446 
91 0.420611 0.420414 0.420227 0.420725 0.421608 0.422098 0.422161 0.422082 0.42199 0.421909 
92 0.343549 0.343357 0.343175 0.343677 0.344565 0.345061 0.345129 0.345056 0.344969 0.344894 
93 0.289557 0.289367 0.289188 0.289691 0.290571 0.291055 0.29111 0.29102 0.290916 0.29083 
94 0.386831 0.386636 0.386451 0.386952 0.387837 0.388329 0.388395 0.388318 0.388228 0.38815 
95 0.371973 0.371777 0.371592 0.372091 0.372976 0.373468 0.373532 0.373455 0.373364 0.373285 
96 0.321678 0.321485 0.321303 0.321805 0.322691 0.323187 0.323257 0.323187 0.323104 0.323032 
97 0.310235 0.310045 0.309861 0.310363 0.311249 0.31174 0.311803 0.311723 0.311629 0.311544 
98 0.399822 0.399625 0.399438 0.399937 0.400819 0.40131 0.401373 0.401294 0.401203 0.401122 
99 0.410216 0.410019 0.409832 0.41033 0.411212 0.411703 0.411765 0.411686 0.411594 0.411513 
100 0.284563 0.284372 0.284189 0.284692 0.28558 0.286074 0.286138 0.286059 0.285963 0.285876 
101 0.405132 0.404935 0.404747 0.405244 0.406126 0.406616 0.406678 0.406599 0.406506 0.406425 
102 0.338728 0.338536 0.338353 0.338855 0.339742 0.340237 0.340305 0.34023 0.340142 0.340066 
103 0.244561 0.244357 0.244164 0.244647 0.245521 0.246017 0.246084 0.246002 0.24591 0.245844 
104 0.251976 0.251794 0.251625 0.252138 0.253024 0.253514 0.253576 0.253495 0.2534 0.253325 
105 0.30382 0.303629 0.303447 0.303951 0.304837 0.305331 0.305395 0.305317 0.305227 0.305148 
106 0.374478 0.374287 0.374106 0.37461 0.375498 0.375995 0.376064 0.375991 0.375905 0.375831 
107 0.356712 0.356524 0.356345 0.356852 0.357743 0.358242 0.358314 0.358243 0.35816 0.358088 
108 0.379022 0.37883 0.378648 0.379151 0.380038 0.380533 0.380601 0.380527 0.38044 0.380364 
109 0.200028 0.19983 0.199641 0.200135 0.201019 0.201518 0.201588 0.201512 0.201421 0.20135 
110 0.245622 0.245433 0.245253 0.245758 0.246647 0.247144 0.247214 0.247143 0.247056 0.246978 
111 0.387745 0.387558 0.38738 0.387888 0.388781 0.389281 0.389354 0.389285 0.389203 0.389132 
112 0.224169 0.223977 0.223795 0.2243 0.225193 0.225696 0.225772 0.225704 0.225619 0.225545 
113 0.329722 0.329534 0.329354 0.329861 0.330752 0.33125 0.331322 0.331251 0.331167 0.331095 
114 0.297479 0.297292 0.297114 0.297622 0.298514 0.299014 0.299086 0.299017 0.298935 0.298864 
115 0.254917 0.254727 0.254547 0.255052 0.255941 0.256438 0.256507 0.256435 0.25635 0.256277 
116 0.323928 0.323739 0.32356 0.324066 0.324957 0.325455 0.325527 0.325456 0.325372 0.3253 
117 0.227533 0.227343 0.227163 0.227669 0.228559 0.229057 0.229128 0.229059 0.228976 0.228903 
118 0.341061 0.340872 0.340693 0.341199 0.342089 0.342587 0.342658 0.342587 0.342503 0.342431 
119 0.186679 0.186488 0.186306 0.18681 0.1877 0.188199 0.18827 0.1882 0.188115 0.188037 
120 0.356508 0.35632 0.356142 0.356649 0.357541 0.358041 0.358113 0.358044 0.357961 0.35789 
121 0.29755 0.297361 0.297182 0.297688 0.298578 0.299077 0.299147 0.299077 0.298993 0.29892 
122 0.331135 0.330947 0.330768 0.331274 0.332165 0.332663 0.332734 0.332664 0.33258 0.332508 
123 0.168542 0.168353 0.168174 0.168682 0.169572 0.170071 0.170143 0.170072 0.169982 0.169901 
124 0.360621 0.360432 0.360253 0.360759 0.36165 0.362149 0.36222 0.362149 0.362065 0.361993 
125 0.237119 0.236929 0.236749 0.237255 0.238145 0.238643 0.238714 0.238642 0.238558 0.238485 
126 0.188522 0.188331 0.188151 0.188656 0.189545 0.190043 0.190113 0.190041 0.189957 0.189883 
127 0.257863 0.257674 0.257494 0.257999 0.258889 0.259387 0.259458 0.259386 0.259302 0.259229 
128 0.299466 0.299277 0.299097 0.299602 0.300492 0.30099 0.301061 0.300989 0.300905 0.300832 
129 0.332184 0.331996 0.331817 0.332323 0.333214 0.333713 0.333785 0.333714 0.333631 0.333559 
130 0.320273 0.320084 0.319905 0.320412 0.321303 0.321802 0.321873 0.321803 0.321719 0.321648 
131 0.166446 0.166256 0.166076 0.166581 0.16747 0.167967 0.168036 0.167965 0.16788 0.167805 
132 0.124403 0.124214 0.124035 0.124541 0.125431 0.12593 0.126002 0.12593 0.12584 0.12576 
133 0.338283 0.338091 0.337909 0.338413 0.3393 0.339796 0.339864 0.339791 0.339704 0.339629 
134 0.25044 0.25025 0.250069 0.250574 0.251464 0.251961 0.252031 0.251959 0.251874 0.2518 
135 0.159256 0.159065 0.158885 0.15939 0.160279 0.160776 0.160845 0.160773 0.160689 0.160616 
136 0.228656 0.228466 0.228284 0.228789 0.229677 0.230174 0.230243 0.230171 0.230085 0.23001 
137 0.270519 0.270329 0.270148 0.270653 0.271542 0.272039 0.272109 0.272037 0.271951 0.271878 
138 0.0932328 0.0930431 0.0928627 0.0933671 0.094256 0.0947543 0.0948262 0.0947554 0.0946676 0.0945877 
139 0.303202 0.303012 0.302831 0.303336 0.304225 0.304723 0.304792 0.30472 0.304635 0.304562 
140 0.287494 0.287303 0.287123 0.287627 0.288516 0.289013 0.289083 0.28901 0.288925 0.288851 
141 0.189081 0.18889 0.18871 0.189215 0.190104 0.190601 0.190671 0.190599 0.190513 0.19044 
142 0.125471 0.125281 0.125101 0.125606 0.126495 0.126993 0.127062 0.126991 0.126907 0.126834 
143 0.312835 0.312645 0.312464 0.312969 0.313858 0.314355 0.314424 0.314352 0.314267 0.314193 
144 0.155069 0.154879 0.154699 0.155204 0.156093 0.156591 0.15666 0.156588 0.156503 0.15643 
145 0.237596 0.237406 0.237225 0.23773 0.238619 0.239116 0.239186 0.239114 0.239028 0.238954 
146 0.0950116 0.094822 0.0946421 0.0951472 0.0960362 0.0965333 0.0966043 0.0965348 0.0964503 0.0963724 
147 0.295423 0.295233 0.295052 0.295557 0.296446 0.296944 0.297013 0.296941 0.296856 0.296783 
148 0.118582 0.118392 0.118211 0.118717 0.119606 0.120103 0.120173 0.120102 0.120017 0.119944 
149 0.277055 0.276865 0.276684 0.277188 0.278077 0.278574 0.278644 0.278571 0.278486 0.278412 
150 0.261168 0.260978 0.260797 0.261302 0.262191 0.262688 0.262758 0.262686 0.2626 0.262527 
151 0.187145 0.186955 0.186774 0.187279 0.188168 0.188666 0.188735 0.188663 0.188578 0.188504 
152 0.0476248 0.0474352 0.0472551 0.0477597 0.0486484 0.0491471 0.0492202 0.0491489 0.0490571 0.0489774 
153 0.291483 0.291293 0.291113 0.291618 0.292508 0.293006 0.293076 0.293005 0.29292 0.292847 
154 0.05243 0.0522402 0.0520603 0.0525658 0.053455 0.0539517 0.0540223 0.0539538 0.05387 0.0537909 
155 0.263478 0.263289 0.263109 0.263614 0.264504 0.265001 0.265072 0.265 0.264915 0.264842 
156 0.0845817 0.0843919 0.0842117 0.0847172 0.0856072 0.0861049 0.0861746 0.0861031 0.0860194 0.0859467 
157 0.104762 0.104572 0.104391 0.104896 0.105786 0.106284 0.106354 0.106282 0.106197 0.106125 
158 0.243144 0.242954 0.242774 0.243279 0.244169 0.244666 0.244736 0.244664 0.24458 0.244506 
159 0.0257441 0.0255545 0.0253746 0.0258799 0.0267688 0.0272659 0.0273381 0.0272695 0.0271816 0.0270994 
160 0.195764 0.195574 0.195394 0.195899 0.196789 0.197287 0.197357 0.197285 0.197201 0.197127 
161 0.230741 0.230551 0.230371 0.230876 0.231766 0.232264 0.232334 0.232263 0.232178 0.232105 
162 0.151138 0.150948 0.150768 0.151274 0.152164 0.152661 0.152732 0.15266 0.152576 0.152503 
163 0.26401 0.263821 0.263641 0.264146 0.265036 0.265533 0.265603 0.265532 0.265447 0.265374 
164 0.236218 0.236028 0.235848 0.236353 0.237243 0.237741 0.237811 0.237739 0.237654 0.237581 
165 0.0491299 0.04894 0.0487598 0.0492653 0.0501554 0.0506525 0.0507216 0.0506506 0.0505688 0.0504964 
166 0.156047 0.155857 0.155677 0.156182 0.157072 0.157569 0.15764 0.157568 0.157483 0.15741 
167 -0.0112544 -0.0114444 -0.0116253 -0.0111199 -0.0102292 -0.00973232 -0.00966403 -0.0097328 -0.00981345 -0.00989504 
168 0.244466 0.244276 0.244095 0.2446 0.245489 0.245987 0.246056 0.245984 0.245899 0.245826 
169 0.197258 0.197068 0.196888 0.197393 0.198283 0.198781 0.198851 0.198779 0.198694 0.198621 
170 0.0808984 0.0807087 0.0805285 0.0810336 0.0819232 0.0824211 0.0824917 0.0824199 0.082334 0.0822608 
171 0.102377 0.102187 0.102007 0.102512 0.103402 0.103899 0.103969 0.103898 0.103814 0.10374 
172 0.180183 0.179994 0.179813 0.180319 0.181208 0.181706 0.181776 0.181705 0.18162 0.181547 
173 0.0195232 0.0193333 0.019153 0.019658 0.0205478 0.0210458 0.0211152 0.0210422 0.0209586 0.0208897 
174 0.211354 0.211164 0.210984 0.211489 0.212378 0.212876 0.212946 0.212874 0.212789 0.212716 
175 0.21805 0.21786 0.21768 0.218185 0.219075 0.219572 0.219642 0.21957 0.219485 0.219412 
176 -0.0311034 -0.0312928 -0.0314739 -0.0309696 -0.0300785 -0.0295798 -0.0295127 -0.0295859 -0.0296635 -0.0297341 
177 0.119285 0.119095 0.118914 0.11942 0.120309 0.120807 0.120877 0.120805 0.12072 0.120647 
178 0.0368317 0.0366418 0.0364615 0.0369666 0.0378562 0.0383539 0.0384244 0.0383527 0.0382665 0.0381925 
179 0.174224 0.174034 0.173854 0.174359 0.175249 0.175746 0.175816 0.175745 0.17566 0.175586 
180 0.0172758 0.017086 0.0169058 0.0174109 0.0183003 0.0187982 0.0188687 0.0187961 0.0187096 0.0186386 
181 -0.0151439 -0.0153333 -0.0155135 -0.0150094 -0.0141198 -0.0136204 -0.0135506 -0.0136258 -0.0137096 -0.0137744 
182 0.186745 0.186556 0.186375 0.18688 0.18777 0.188268 0.188338 0.188266 0.188181 0.188108 
183 0.205617 0.205427 0.205247 0.205752 0.206641 0.207139 0.207209 0.207137 0.207052 0.206979 
184 0.0727595 0.0725696 0.0723892 0.0728943 0.073784 0.0742816 0.0743513 0.0742796 0.0741953 0.0741222 
185 0.141592 0.141402 0.141222 0.141727 0.142616 0.143114 0.143184 0.143112 0.143028 0.142954 
186 0.085228 0.0850382 0.0848579 0.085363 0.0862526 0.0867503 0.0868203 0.0867483 0.0866635 0.0865909 
187 0.119152 0.118963 0.118782 0.119287 0.120177 0.120675 0.120745 0.120673 0.120588 0.120515 
188 -0.0162951 -0.0164852 -0.0166653 -0.0161599 -0.0152704 -0.0147732 -0.0147029 -0.0147742 -0.01486 -0.0149334 
189 0.198134 0.197944 0.197764 0.198269 0.199159 0.199656 0.199727 0.199655 0.19957 0.199497 
190 0.168252 0.168062 0.167882 0.168387 0.169277 0.169774 0.169844 0.169773 0.169688 0.169615 
191 -0.0719698 -0.0721588 -0.0723385 -0.071835 -0.0709468 -0.0704467 -0.0703741 -0.0704489 -0.0705363 -0.0706054 
192 -0.0371304 -0.0373201 -0.0374997 -0.0369948 -0.0361066 -0.0356087 -0.0355361 -0.0356083 -0.0356976 -0.0357693 
193 0.0159623 0.0157724 0.0155922 0.0160973 0.0169869 0.0174844 0.0175545 0.0174832 0.0173983 0.0173239 
194 0.177383 0.177193 0.177013 0.177518 0.178408 0.178905 0.178975 0.178904 0.178819 0.178746 
195 0.137768 0.137578 0.137398 0.137903 0.138793 0.13929 0.13936 0.139289 0.139204 0.13913 
196 0.120558 0.120368 0.120188 0.120693 0.121583 0.12208 0.12215 0.122079 0.121994 0.121921 
197 0.0314288 0.0312389 0.0310586 0.0315637 0.0324534 0.032951 0.0330208 0.0329492 0.0328649 0.0327915 
198 -0.0644672 -0.0646577 -0.0648364 -0.0643296 -0.0634428 -0.0629495 -0.062875 -0.0629375 -0.063028 -0.0631171 
199 0.0855759 0.085386 0.0852057 0.0857108 0.0866005 0.0870981 0.0871681 0.0870964 0.0870116 0.0869383 
200 0.166411 0.166221 0.166041 0.166546 0.167435 0.167933 0.168003 0.167931 0.167847 0.167773 
201 -0.0840484 -0.0842379 -0.0844165 -0.0839118 -0.0830254 -0.0825275 -0.082452 -0.0825238 -0.0826166 -0.0826881 
202 0.0533432 0.0531533 0.052973 0.0534781 0.0543678 0.0548654 0.0549355 0.0548637 0.0547786 0.0547055 
203 0.175519 0.175329 0.175148 0.175654 0.176543 0.177041 0.177111 0.177039 0.176954 0.176881 
204 -0.0339539 -0.0341439 -0.0343243 -0.033819 -0.0329291 -0.0324317 -0.0323622 -0.0324335 -0.0325179 -0.0325921 
205 0.138757 0.138567 0.138387 0.138892 0.139782 0.140279 0.140349 0.140278 0.140193 0.140119 
206 0.119861 0.119671 0.11949 0.119996 0.120885 0.121383 0.121453 0.121381 0.121296 0.121223 
207 -0.0197955 -0.0199853 -0.0201656 -0.0196606 -0.0187709 -0.0182731 -0.018203 -0.018275 -0.0183601 -0.0184332 
208 0.0878056 0.0876158 0.0874355 0.0879406 0.0888302 0.0893279 0.0893979 0.0893261 0.0892413 0.0891681 
209 0.054461 0.0542711 0.0540908 0.0545959 0.0554856 0.0559832 0.0560532 0.0559816 0.0558966 0.0558231 
210 0.0198265 0.0196366 0.0194563 0.0199614 0.0208511 0.0213488 0.0214188 0.0213469 0.021262 0.0211893 
211 -0.0857836 -0.0859743 -0.086155 -0.085648 -0.0847571 -0.0842629 -0.0841963 -0.0842626 -0.0843406 -0.0844207 
212 -0.116788 -0.116978 -0.117159 -0.116654 -0.115762 -0.115262 -0.115196 -0.115277 -0.115358 -0.115407 
213 0.144321 0.144131 0.14395 0.144456 0.145345 0.145843 0.145913 0.145841 0.145756 0.145683 
214 0.16039 0.1602 0.16002 0.160525 0.161415 0.161912 0.161982 0.161911 0.161826 0.161752 
215 -0.0746503 -0.0748403 -0.0750214 -0.0745161 -0.0736248 -0.0731271 -0.0730604 -0.0731329 -0.0732121 -0.0732832 
216 0.12509 0.1249 0.12472 0.125225 0.126114 0.126612 0.126682 0.12661 0.126525 0.126452 
217 -0.118836 -0.119026 -0.119207 -0.118703 -0.117812 -0.117311 -0.117242 -0.117321 -0.117411 -0.117469 
218 0.0589927 0.0588028 0.0586225 0.0591277 0.0600173 0.0605149 0.060585 0.0605132 0.0604283 0.0603551 
219 -0.0105555 -0.0107453 -0.0109256 -0.0104205 -0.00953085 -0.00903325 -0.00896325 -0.00903486 -0.00911973 -0.0091931 
220 0.141779 0.141589 0.141409 0.141914 0.142804 0.143301 0.143371 0.1433 0.143215 0.143142 
221 0.0843861 0.0841963 0.084016 0.0845211 0.0854108 0.0859084 0.0859784 0.0859067 0.0858218 0.0857486 
222 -0.0519028 -0.0520926 -0.0522729 -0.0517678 -0.0508782 -0.0503804 -0.0503103 -0.0503824 -0.0504677 -0.0505401 
223 0.0202925 0.0201026 0.0199223 0.0204274 0.0213171 0.0218147 0.0218847 0.021813 0.0217281 0.0216549 
224 0.0588512 0.0586614 0.0584811 0.0589862 0.0598759 0.0603735 0.0604435 0.0603718 0.0602869 0.0602136 
225 -0.0458535 -0.0460434 -0.0462237 -0.0457186 -0.0448289 -0.0443313 -0.0442612 -0.0443327 -0.0444181 -0.0444918 
226 0.0999081 0.0997182 0.0995379 0.100043 0.100933 0.10143 0.1015 0.101429 0.101344 0.10127 
227 -0.0979301 -0.0981198 -0.0983003 -0.0977956 -0.0969055 -0.0964068 -0.0963377 -0.0964117 -0.0964951 -0.096564 
228 0.0227202 0.0225303 0.02235 0.0228551 0.0237448 0.0242424 0.0243124 0.0242407 0.0241558 0.0240826 
229 -0.0118214 -0.0120113 -0.0121916 -0.0116865 -0.0107968 -0.0102992 -0.0102292 -0.010301 -0.0103857 -0.0104589 
230 0.0774908 0.0773009 0.0771207 0.0776258 0.0785154 0.0790131 0.0790831 0.0790114 0.0789265 0.0788533 
231 -0.14336 -0.143549 -0.143729 -0.143227 -0.142339 -0.141836 -0.14176 -0.141839 -0.141942 -0.14201 
232 -0.0878338 -0.0880236 -0.0882039 -0.0876991 -0.0868094 -0.0863108 -0.0862406 -0.0863149 -0.0864008 -0.0864684 
233 0.120364 0.120174 0.119994 0.120499 0.121388 0.121886 0.121956 0.121884 0.121799 0.121726 
234 0.0971769 0.0969871 0.0968068 0.0973119 0.0982015 0.0986992 0.0987692 0.0986975 0.0986126 0.0985393 
235 -0.132446 -0.132635 -0.132814 -0.13231 -0.131423 -0.130926 -0.13085 -0.130916 -0.131012 -0.131103 
236 0.110659 0.110469 0.110288 0.110794 0.111683 0.112181 0.112251 0.112179 0.112094 0.112021 
237 -0.172375 -0.172566 -0.172747 -0.17224 -0.171349 -0.170856 -0.170786 -0.170848 -0.170933 -0.171033 
238 -0.0750545 -0.0752444 -0.0754247 -0.0749196 -0.0740299 -0.0735324 -0.0734623 -0.0735338 -0.0736187 -0.0736928 
239 0.0306038 0.0304139 0.0302336 0.0307388 0.0316284 0.032126 0.032196 0.0321243 0.0320394 0.0319662 
240 -0.0428489 -0.0430388 -0.0432191 -0.042714 -0.0418243 -0.0413267 -0.0412567 -0.0413285 -0.0414133 -0.0414863 
241 0.0495536 0.0493637 0.0491834 0.0496886 0.0505782 0.0510758 0.0511458 0.0510741 0.0509892 0.050916 
242 0.0746387 0.0744488 0.0742685 0.0747736 0.0756633 0.0761609 0.0762309 0.0761592 0.0760743 0.0760011 
243 -0.0706599 -0.0708498 -0.0710301 -0.070525 -0.0696353 -0.0691376 -0.0690677 -0.0691395 -0.069224 -0.0692972 
244 -0.120101 -0.120291 -0.120471 -0.119966 -0.119077 -0.118579 -0.118507 -0.11858 -0.118668 -0.11874 
245 -0.0106614 -0.0108512 -0.0110315 -0.0105264 -0.00963676 -0.00913914 -0.00906913 -0.00914082 -0.00922572 -0.00929899 
246 0.0280153 0.0278255 0.0276452 0.0281503 0.0290399 0.0295376 0.0296076 0.0295358 0.0294509 0.0293778 
247 -0.112579 -0.112769 -0.112949 -0.112444 -0.111555 -0.111057 -0.110987 -0.111057 -0.111144 -0.11122 
248 0.0488782 0.0486883 0.048508 0.0490132 0.0499028 0.0504004 0.0504704 0.0503987 0.0503138 0.0502406 
249 -0.00245139 -0.00264125 -0.00282156 -0.00231644 -0.00142678 -0.000929145 -0.000859164 -0.000930864 -0.00101572 -0.00108896 
250 -0.159435 -0.159625 -0.159805 -0.159299 -0.15841 -0.157914 -0.157844 -0.157912 -0.157991 -0.158072 
251 0.08143 0.0812401 0.0810598 0.0815649 0.0824546 0.0829522 0.0830222 0.0829505 0.0828656 0.0827924 
252 -0.191531 -0.191721 -0.191904 -0.191397 -0.190502 -0.19001 -0.189952 -0.19001 -0.190069 -0.19017 
253 0.0678243 0.0676344 0.0674541 0.0679593 0.0688489 0.0693465 0.0694165 0.0693448 0.0692599 0.0691867 
254 -0.0440074 -0.0441973 -0.0443776 -0.0438724 -0.0429828 -0.0424852 -0.0424151 -0.0424869 -0.0425718 -0.042645 
255 -0.155628 -0.155818 -0.155998 -0.155492 -0.154603 -0.154105 -0.154036 -0.154109 -0.15419 -0.154257 
256 -0.18864 -0.188828 -0.18901 -0.188507 -0.187614 -0.187112 -0.18705 -0.187131 -0.187197 -0.187251 
257 0.000296271 0.000106409 -7.38894e-05 0.000431229 0.00132088 0.00181852 0.00188852 0.0018168 0.00173189 0.0016587 
258 -0.216953 -0.217143 -0.217327 -0.216822 -0.215923 -0.215427 -0.215377 -0.215446 -0.215488 -0.215557 
259 -0.101795 -0.101985 -0.102165 -0.10166 -0.10077 -0.100273 -0.100203 -0.100275 -0.100359 -0.100432 
260 0.0671863 0.0669964 0.0668161 0.0673212 0.0682109 0.0687085 0.0687785 0.0687068 0.0686219 0.0685487 
261 -0.0205072 -0.0206971 -0.0208774 -0.0203722 -0.0194826 -0.018985 -0.018915 -0.0189867 -0.0190716 -0.0191447 
262 0.0276557 0.0274658 0.0272855 0.0277906 0.0286803 0.0291779 0.0292479 0.0291762 0.0290913 0.0290181 
263 0.0403307 0.0401409 0.0399606 0.0404657 0.0413553 0.041853 0.041923 0.0418512 0.0417664 0.0416931 
264 -0.144383 -0.144573 -0.144754 -0.144248 -0.143359 -0.142861 -0.142792 -0.142862 -0.142947 -0.143022 
265 -0.0736399 -0.0738298 -0.0740101 -0.073505 -0.0726153 -0.0721177 -0.0720477 -0.0721194 -0.0722043 -0.0722775 
266 -0.212645 -0.212833 -0.213013 -0.212511 -0.211622 -0.211117 -0.211046 -0.211135 -0.211222 -0.211258 
267 -0.0135023 -0.0136921 -0.0138724 -0.0133673 -0.0124777 -0.01198 -0.01191 -0.0119817 -0.0120666 -0.0121399 
268 -0.137354 -0.137544 -0.137724 -0.137219 -0.136329 -0.135832 -0.135762 -0.135834 -0.135917 -0.135991 
269 -0.227544 -0.227731 -0.227915 -0.227414 -0.226518 -0.22601 -0.225955 -0.22605 -0.226106 -0.226122 
270 -0.10337 -0.10356 -0.10374 -0.103235 -0.102346 -0.101848 -0.101778 -0.10185 -0.101935 -0.102008 
271 0.00033424 0.000144377 -3.59228e-05 0.000469199 0.00135885 0.00185648 0.00192648 0.00185478 0.00176988 0.00169665 
272 -0.192296 -0.192486 -0.192666 -0.19216 -0.191271 -0.190774 -0.190704 -0.190776 -0.190861 -0.19093 
273 0.0398768 0.0396869 0.0395066 0.0400118 0.0409014 0.0413991 0.0414691 0.0413973 0.0413124 0.0412392 
274 -0.0490282 -0.049218 -0.0493983 -0.0488932 -0.0480036 -0.0475059 -0.0474359 -0.0475076 -0.0475925 -0.0476658 
275 0.0258613 0.0256714 0.0254911 0.0259962 0.0268859 0.0273835 0.0274535 0.0273818 0.0272969 0.0272237 
276 -0.218859 -0.219049 -0.219227 -0.218723 -0.217837 -0.217337 -0.217259 -0.217337 -0.21744 -0.2175 
277 -0.187433 -0.187623 -0.187804 -0.187298 -0.186408 -0.185911 -0.185842 -0.185912 -0.185999 -0.186072 
278 -0.0738154 -0.0740052 -0.0741855 -0.0736804 -0.0727908 -0.0722931 -0.0722231 -0.0722948 -0.0723797 -0.0724529 
279 -0.0444608 -0.0446507 -0.044831 -0.0443259 -0.0434362 -0.0429386 -0.0428686 -0.0429403 -0.0430252 -0.0430984 
280 -0.24864 -0.248827 -0.249009 -0.24851 -0.247617 -0.247105 -0.24704 -0.247147 -0.247231 -0.247225 
281 -0.164117 -0.164307 -0.164487 -0.163982 -0.163093 -0.162595 -0.162525 -0.162597 -0.162682 -0.162753 
282 0.0251574 0.0249675 0.0247872 0.0252923 0.026182 0.0266796 0.0267496 0.0266779 0.026593 0.0265198 
283 -0.132009 -0.132199 -0.132379 -0.131874 -0.130984 -0.130487 -0.130417 -0.130488 -0.130573 -0.130647 
284 -0.000839469 -0.00102933 -0.00120963 -0.000704511 0.000185143 0.000682778 0.000752775 0.000681066 0.000596168 0.000522953 
285 -0.0261621 -0.026352 -0.0265323 -0.0260271 -0.0251375 -0.0246398 -0.0245698 -0.0246416 -0.0247265 -0.0247997 
286 -0.243417 -0.243607 -0.243784 -0.243278 -0.242395 -0.241899 -0.241814 -0.24188 -0.241999 -0.242094 
287 -0.15668 -0.15687 -0.15705 -0.156545 -0.155655 -0.155158 -0.155088 -0.155159 -0.155245 -0.155318 
288 -0.258192 -0.25838 -0.258558 -0.258058 -0.257174 -0.256664 -0.256579 -0.256678 -0.256806 -0.256828 
289 -0.0246648 -0.0248547 -0.025035 -0.0245299 -0.0236402 -0.0231426 -0.0230726 -0.0231443 -0.0232292 -0.0233024 
290 -0.211403 -0.211593 -0.211774 -0.211268 -0.210378 -0.20988 -0.209812 -0.209883 -0.209967 -0.210041 
291 -0.102325 -0.102514 -0.102695 -0.10219 -0.1013 -0.100802 -0.100732 -0.100804 -0.100889 -0.100962 
292 -0.194429 -0.194619 -0.194799 -0.194294 -0.193405 -0.192906 -0.192836 -0.19291 -0.192995 -0.193065 
293 -0.0710897 -0.0712795 -0.0714598 -0.0709547 -0.0700651 -0.0695674 -0.0694974 -0.0695692 -0.069654 -0.0697272 
294 0.00228202 0.00209216 0.00191186 0.00241698 0.00330663 0.00380427 0.00387426 0.00380256 0.00371766 0.00364444 
295 -0.0105157 -0.0107055 -0.0108858 -0.0103807 -0.00949106 -0.00899343 -0.00892343 -0.00899514 -0.00908004 -0.00915325 
296 -0.130354 -0.130544 -0.130725 -0.130219 -0.12933 -0.128832 -0.128762 -0.128834 -0.128919 -0.128992 
297 -0.0659318 -0.0661217 -0.066302 -0.0657968 -0.0649072 -0.0644096 -0.0643396 -0.0644113 -0.0644962 -0.0645694 
298 -0.251964 -0.252155 -0.252335 -0.251827 -0.25094 -0.250447 -0.250372 -0.250431 -0.250529 -0.250634 
299 -0.237141 -0.237331 -0.237512 -0.237006 -0.236115 -0.23562 -0.235553 -0.235618 -0.235696 -0.235784 
300 -0.182818 -0.183008 -0.183189 -0.182683 -0.181794 -0.181296 -0.181226 -0.181298 -0.181383 -0.181456 
301 -0.28021 -0.280397 -0.280575 -0.280075 -0.279192 -0.278684 -0.278595 -0.278689 -0.278823 -0.278861 