VARIABLES = "Cell" "Mode 0" "Mode 1" "Mode 2" "Mode 3" "Mode 4" "Mode 5" "Mode 6" "Mode 7" "Mode 8" "Mode 9" 
ZONE T = Iteration1
0 0.0775759 0.0467888 -1.82641e-21 0 0 0 0 0 0 0 
1 0.0881957 0.0546934 -1.79995e-21 0 0 0 0 0 0 0 
2 0.11029 0.0624446 -1.81318e-21 0 0 0 0 0 0 0 
3 0.110197 0.0622742 -1.82641e-21 0 0 0 0 0 0 0 
4 0.11175 0.062391 -1.81318e-21 0 0 0 0 0 0 0 
5 0.111745 0.0623743 -1.79995e-21 0 0 0 0 0 0 0 
6 0.111688 0.0623757 -1.79995e-21 0 0 0 0 0 0 0 
7 0.111689 0.0623647 -1.81318e-21 0 0 0 0 0 0 0 
8 0.11174 0.0623735 -1.81318e-21 0 0 0 0 0 0 0 
9 0.111733 0.0623727 -1.82641e-21 0 0 0 0 0 0 0 
10 0.111733 0.0623727 -1.81318e-21 0 0 0 0 0 0 0 
11 0.111733 0.0623727 -1.81318e-21 0 0 0 0 0 0 0 
12 0.111733 0.0623727 -1.82641e-21 0 0 0 0 0 0 0 
13 0.111733 0.0623727 -1.81318e-21 0 0 0 0 0 0 0 
14 0.111733 0.0623727 -1.81318e-21 0 0 0 0 0 0 0 
15 0.110853 0.0623708 -1.82641e-21 0 0 0 0 0 0 0 
16 0.111753 0.0623769 -1.82641e-21 0 0 0 0 0 0 0 
17 0.111747 0.062375 -1.82641e-21 0 0 0 0 0 0 0 
18 0.0920183 0.0577893 -1.81318e-21 0 0 0 0 0 0 0 
19 0.111733 0.0623727 -1.79995e-21 0 0 0 0 0 0 0 
20 0.079664 0.0271526 -1.79995e-21 0 0 0 0 0 0 0 
21 0.102424 0.0613695 -1.82641e-21 0 0 0 0 0 0 0 
22 0.11171 0.0623827 -1.81318e-21 0 0 0 0 0 0 0 
23 0.111733 0.0623727 -1.79995e-21 0 0 0 0 0 0 0 
24 0.111733 0.0623727 -1.82641e-21 0 0 0 0 0 0 0 
25 0.111733 0.0623726 -1.77348e-21 0 0 0 0 0 0 0 
26 0.111732 0.0623725 -1.81318e-21 0 0 0 0 0 0 0 
27 0.111733 0.0623727 -1.81318e-21 0 0 0 0 0 0 0 
28 0.111733 0.0623727 -1.78671e-21 0 0 0 0 0 0 0 
29 0.111733 0.0623727 -1.81318e-21 0 0 0 0 0 0 0 
30 0.111733 0.0623727 -1.79995e-21 0 0 0 0 0 0 0 
31 0.0757989 0.0456542 -1.81318e-21 0 0 0 0 0 0 0 
32 0.109194 0.0626096 -1.82641e-21 0 0 0 0 0 0 0 
33 0.111717 0.062394 -1.79995e-21 0 0 0 0 0 0 0 
34 0.111733 0.0623727 -1.78671e-21 0 0 0 0 0 0 0 
35 0.111733 0.0623727 -1.79995e-21 0 0 0 0 0 0 0 
36 0.111785 0.0623754 -1.79995e-21 0 0 0 0 0 0 0 
37 0.111732 0.0623726 -1.79995e-21 0 0 0 0 0 0 0 
38 0.111733 0.0623727 -1.82641e-21 0 0 0 0 0 0 0 
39 0.100968 0.0617861 -1.77348e-21 0 0 0 0 0 0 0 
40 0.11172 0.0623696 -1.79995e-21 0 0 0 0 0 0 0 
41 0.111721 0.062371 -1.79995e-21 0 0 0 0 0 0 0 
42 0.111155 0.0625028 -1.81318e-21 0 0 0 0 0 0 0 
43 0.111733 0.0623727 -1.83965e-21 0 0 0 0 0 0 0 
44 0.111733 0.0623727 -1.86612e-21 0 0 0 0 0 0 0 
45 0.111839 0.0623662 -1.79995e-21 0 0 0 0 0 0 0 
46 0.043284 0.0339508 -1.79995e-21 0 0 0 0 0 0 0 
47 0.111733 0.0623727 -1.85288e-21 0 0 0 0 0 0 0 
48 0.111754 0.0623656 -1.78671e-21 0 0 0 0 0 0 0 
49 0.0753335 0.0555881 -1.81318e-21 0 0 0 0 0 0 0 
50 0.111731 0.0623725 -1.82641e-21 0 0 0 0 0 0 0 
51 0.111729 0.0623721 -1.82641e-21 0 0 0 0 0 0 0 
52 0.0161006 -0.0249904 -1.79995e-21 0 0 0 0 0 0 0 
53 0.111733 0.0623727 -1.79995e-21 0 0 0 0 0 0 0 
54 0.111732 0.0623726 -1.82641e-21 0 0 0 0 0 0 0 
55 0.111621 0.062571 -1.81318e-21 0 0 0 0 0 0 0 
56 0.112107 0.0624227 -1.81318e-21 0 0 0 0 0 0 0 
57 0.0612981 0.0543163 -1.81318e-21 0 0 0 0 0 0 0 
58 0.111732 0.0623726 -1.85288e-21 0 0 0 0 0 0 0 
59 0.111733 0.0623727 -1.81318e-21 0 0 0 0 0 0 0 
60 0.000385723 0.0179846 -1.81318e-21 0 0 0 0 0 0 0 
61 0.111733 0.0623726 -1.77348e-21 0 0 0 0 0 0 0 
62 0.109919 0.0629146 -1.76024e-21 0 0 0 0 0 0 0 
63 0.0931697 0.0615864 -1.83965e-21 0 0 0 0 0 0 0 
64 0.111886 0.0623849 -1.79995e-21 0 0 0 0 0 0 0 
65 0.111733 0.0623727 -1.81318e-21 0 0 0 0 0 0 0 
66 0.111733 0.0623727 -1.78671e-21 0 0 0 0 0 0 0 
67 0.111737 0.0623723 -1.83965e-21 0 0 0 0 0 0 0 
68 0.112699 0.0626488 -1.78671e-21 0 0 0 0 0 0 0 
69 -0.0353094 -0.0544666 -1.74701e-21 0 0 0 0 0 0 0 
70 0.111733 0.0623727 -1.90582e-21 0 0 0 0 0 0 0 
71 0.111733 0.0623726 -1.76024e-21 0 0 0 0 0 0 0 
72 0.112395 0.0627522 -1.83965e-21 0 0 0 0 0 0 0 
73 0.11177 0.0623735 -1.77348e-21 0 0 0 0 0 0 0 
74 0.112271 0.0624535 -1.87935e-21 0 0 0 0 0 0 0 
75 0.111732 0.0623725 -1.89259e-21 0 0 0 0 0 0 0 
76 0.0839909 0.0606102 -1.82641e-21 0 0 0 0 0 0 0 
77 0.106365 0.062656 -1.82641e-21 0 0 0 0 0 0 0 
78 0.111733 0.0623725 -1.77348e-21 0 0 0 0 0 0 0 
79 0.111733 0.0623727 -1.81318e-21 0 0 0 0 0 0 0 
80 -0.0569171 -0.0100955 -1.85288e-21 0 0 0 0 0 0 0 
81 0.111733 0.0623727 -1.76024e-21 0 0 0 0 0 0 0 
82 0.0250107 0.0475522 -1.79995e-21 0 0 0 0 0 0 0 
83 0.111732 0.0623726 -1.65436e-21 0 0 0 0 0 0 0 
84 0.111733 0.0623726 -1.6676e-21 0 0 0 0 0 0 0 
85 0.111733 0.0623727 -1.78671e-21 0 0 0 0 0 0 0 
86 0.112202 0.0623654 -1.79995e-21 0 0 0 0 0 0 0 
87 -0.0771745 -0.123331 -1.81318e-21 0 0 0 0 0 0 0 
88 0.111733 0.0623727 -1.81318e-21 0 0 0 0 0 0 0 
89 0.111776 0.062373 -1.89259e-21 0 0 0 0 0 0 0 
90 0.106538 0.0624008 -1.81318e-21 0 0 0 0 0 0 0 
91 0.0205319 0.048101 -1.7073e-21 0 0 0 0 0 0 0 
92 0.111732 0.0623726 -1.87935e-21 0 0 0 0 0 0 0 
93 0.111733 0.0623727 -1.85288e-21 0 0 0 0 0 0 0 
94 0.112129 0.0622966 -1.85288e-21 0 0 0 0 0 0 0 
95 0.11191 0.0623736 -1.85288e-21 0 0 0 0 0 0 0 
96 0.111732 0.0623727 -1.79995e-21 0 0 0 0 0 0 0 
97 0.111733 0.0623727 -1.82641e-21 0 0 0 0 0 0 0 
98 0.0810165 0.0595156 -1.77348e-21 0 0 0 0 0 0 0 
99 -0.14351 -0.0652916 -1.89259e-21 0 0 0 0 0 0 0 
100 0.111733 0.0623727 -1.77348e-21 0 0 0 0 0 0 0 
101 -0.0697789 0.0152701 -1.83965e-21 0 0 0 0 0 0 0 
102 0.111741 0.0623728 -1.81318e-21 0 0 0 0 0 0 0 
103 0.111733 0.0623727 -1.73377e-21 0 0 0 0 0 0 0 
104 0.111733 0.0623727 -1.87935e-21 0 0 0 0 0 0 0 
105 0.111732 0.0623727 -1.81318e-21 0 0 0 0 0 0 0 
106 0.0757362 0.0589532 -1.82641e-21 0 0 0 0 0 0 0 
107 0.112169 0.0625136 -1.69407e-21 0 0 0 0 0 0 0 
108 -0.000172449 0.043239 -1.81318e-21 0 0 0 0 0 0 0 
109 0.111733 0.0623727 -1.77348e-21 0 0 0 0 0 0 0 
110 0.111733 0.0623727 -1.87935e-21 0 0 0 0 0 0 0 
111 -0.12043 -0.217899 -1.86612e-21 0 0 0 0 0 0 0 
112 0.111733 0.0623727 -1.91906e-21 0 0 0 0 0 0 0 
113 0.111931 0.062382 -1.79995e-21 0 0 0 0 0 0 0 
114 0.11175 0.0623729 -1.78671e-21 0 0 0 0 0 0 0 
115 0.111733 0.0623727 -1.77348e-21 0 0 0 0 0 0 0 
116 0.112225 0.0624252 -1.72054e-21 0 0 0 0 0 0 0 
117 0.111733 0.0623727 -1.83965e-21 0 0 0 0 0 0 0 
118 0.10263 0.0623704 -1.86612e-21 0 0 0 0 0 0 0 
119 0.111733 0.0623727 -1.82641e-21 0 0 0 0 0 0 0 
120 -0.072065 0.0189042 -1.91906e-21 0 0 0 0 0 0 0 
121 0.111786 0.062373 -1.6676e-21 0 0 0 0 0 0 0 
122 0.112195 0.0627915 -1.86612e-21 0 0 0 0 0 0 0 
123 0.111733 0.0623727 -1.79995e-21 0 0 0 0 0 0 0 
124 -0.194523 -0.0806046 -1.83965e-21 0 0 0 0 0 0 0 
125 0.111733 0.0623727 -1.86612e-21 0 0 0 0 0 0 0 
126 0.111733 0.0623727 -1.76024e-21 0 0 0 0 0 0 0 
127 0.111734 0.0623724 -1.87935e-21 0 0 0 0 0 0 0 
128 0.11283 0.0625894 -2.11758e-21 0 0 0 0 0 0 0 
129 0.0251363 0.0527123 -1.82641e-21 0 0 0 0 0 0 0 
130 0.0860313 0.0612334 -1.79995e-21 0 0 0 0 0 0 0 
131 0.111733 0.0623727 -1.73377e-21 0 0 0 0 0 0 0 
132 0.111733 0.0623727 -1.98523e-21 0 0 0 0 0 0 0 
133 -0.198231 -0.237625 -1.64113e-21 0 0 0 0 0 0 0 
134 0.111749 0.0623702 -2.02494e-21 0 0 0 0 0 0 0 
135 0.111734 0.0623727 -1.93229e-21 0 0 0 0 0 0 0 
136 0.111731 0.0623712 -1.79995e-21 0 0 0 0 0 0 0 
137 0.111515 0.0623949 -1.65436e-21 0 0 0 0 0 0 0 
138 0.111733 0.0623727 -1.60142e-21 0 0 0 0 0 0 0 
139 -0.00814245 0.0467283 -1.78671e-21 0 0 0 0 0 0 0 
140 0.0947043 0.0614714 -1.94553e-21 0 0 0 0 0 0 0 
141 0.111735 0.0623727 -1.79995e-21 0 0 0 0 0 0 0 
142 0.111733 0.0623727 -1.85288e-21 0 0 0 0 0 0 0 
143 -0.269937 -0.126304 -1.85288e-21 0 0 0 0 0 0 0 
144 0.111734 0.0623727 -1.68083e-21 0 0 0 0 0 0 0 
145 0.111749 0.0623736 -1.64113e-21 0 0 0 0 0 0 0 
146 0.111733 0.0623727 -1.64113e-21 0 0 0 0 0 0 0 
147 -0.131091 0.00583951 -1.82641e-21 0 0 0 0 0 0 0 
148 0.111733 0.0623727 -1.74701e-21 0 0 0 0 0 0 0 
149 0.0666916 0.0589979 -1.83965e-21 0 0 0 0 0 0 0 
150 0.108495 0.0623308 -1.85288e-21 0 0 0 0 0 0 0 
151 0.11173 0.0623719 -1.81318e-21 0 0 0 0 0 0 0 
152 0.111733 0.0623727 -1.91906e-21 0 0 0 0 0 0 0 
153 -0.217828 -0.33793 -1.82641e-21 0 0 0 0 0 0 0 
154 0.111733 0.0623727 -2.0117e-21 0 0 0 0 0 0 0 
155 -0.138982 0.00837301 -1.64113e-21 0 0 0 0 0 0 0 
156 0.111733 0.0623727 -1.79995e-21 0 0 0 0 0 0 0 
157 0.111733 0.0623726 -2.03817e-21 0 0 0 0 0 0 0 
158 0.0841951 0.061669 -1.60142e-21 0 0 0 0 0 0 0 
159 0.111733 0.0623727 -1.81318e-21 0 0 0 0 0 0 0 
160 0.111962 0.0623889 -1.972e-21 0 0 0 0 0 0 0 
161 0.107842 0.063015 -1.79995e-21 0 0 0 0 0 0 0 
162 0.11173 0.0623712 -1.81318e-21 0 0 0 0 0 0 0 
163 -0.294585 -0.129249 -1.95876e-21 0 0 0 0 0 0 0 
164 0.00859179 0.0503557 -2.02494e-21 0 0 0 0 0 0 0 
165 0.111733 0.0623727 -1.91906e-21 0 0 0 0 0 0 0 
166 0.111771 0.0623719 -1.81318e-21 0 0 0 0 0 0 0 
167 0.111733 0.0623727 -1.68083e-21 0 0 0 0 0 0 0 
168 -0.307159 -0.299434 -1.81318e-21 0 0 0 0 0 0 0 
169 0.111278 0.0626944 -1.82641e-21 0 0 0 0 0 0 0 
170 0.111731 0.0623725 -1.62789e-21 0 0 0 0 0 0 0 
171 0.111727 0.062372 -1.79995e-21 0 0 0 0 0 0 0 
172 0.112466 0.0624722 -1.81318e-21 0 0 0 0 0 0 0 
173 0.111733 0.0623727 -1.74701e-21 0 0 0 0 0 0 0 
174 0.0013946 0.0502149 -1.56172e-21 0 0 0 0 0 0 0 
175 -0.329097 -0.12088 -1.78671e-21 0 0 0 0 0 0 0 
176 0.111733 0.0623727 -1.83965e-21 0 0 0 0 0 0 0 
177 0.111795 0.0623741 -1.79995e-21 0 0 0 0 0 0 0 
178 0.111732 0.0623726 -2.10435e-21 0 0 0 0 0 0 0 
179 0.106375 0.0627175 -1.95876e-21 0 0 0 0 0 0 0 
180 0.111733 0.0623727 -1.57495e-21 0 0 0 0 0 0 0 
181 0.111733 0.0623727 -1.79995e-21 0 0 0 0 0 0 0 
182 0.0816076 0.0614308 -1.64113e-21 0 0 0 0 0 0 0 
183 -0.128761 0.0218658 -2.02494e-21 0 0 0 0 0 0 0 
184 0.111725 0.0623718 -1.91906e-21 0 0 0 0 0 0 0 
185 0.112594 0.0624998 -1.57495e-21 0 0 0 0 0 0 0 
186 0.111733 0.0623714 -1.6676e-21 0 0 0 0 0 0 0 
187 0.112008 0.0623932 -1.82641e-21 0 0 0 0 0 0 0 
188 0.111733 0.0623727 -2.07788e-21 0 0 0 0 0 0 0 
189 -0.345858 -0.368125 -1.73377e-21 0 0 0 0 0 0 0 
190 0.0631435 0.0610694 -1.95876e-21 0 0 0 0 0 0 0 
191 0.111733 0.0623727 -1.93229e-21 0 0 0 0 0 0 0 
192 0.111733 0.0623727 -1.79995e-21 0 0 0 0 0 0 0 
193 0.111732 0.0623726 -1.7073e-21 0 0 0 0 0 0 0 
194 -0.0410677 0.0461122 -1.7073e-21 0 0 0 0 0 0 0 
195 0.112743 0.0628117 -1.81318e-21 0 0 0 0 0 0 0 
196 0.113511 0.0627933 -1.81318e-21 0 0 0 0 0 0 0 
197 0.111732 0.0623724 -1.7073e-21 0 0 0 0 0 0 0 
198 0.111733 0.0623727 -1.82641e-21 0 0 0 0 0 0 0 
199 0.112089 0.0624039 -1.81318e-21 0 0 0 0 0 0 0 
200 -0.177761 0.00397269 -1.81318e-21 0 0 0 0 0 0 0 
201 0.111733 0.0623727 -1.79995e-21 0 0 0 0 0 0 0 
202 0.111755 0.0623738 -1.98523e-21 0 0 0 0 0 0 0 
203 -0.392653 -0.160455 -2.14405e-21 0 0 0 0 0 0 0 
204 0.111733 0.0623726 -1.61466e-21 0 0 0 0 0 0 0 
205 0.0919266 0.0631465 -1.72054e-21 0 0 0 0 0 0 0 
206 0.11249 0.0635847 -1.69407e-21 0 0 0 0 0 0 0 
207 0.111732 0.0623726 -1.81318e-21 0 0 0 0 0 0 0 
208 0.112715 0.0625266 -1.76024e-21 0 0 0 0 0 0 0 
209 0.111837 0.062378 -1.81318e-21 0 0 0 0 0 0 0 
210 0.11174 0.0623722 -1.89259e-21 0 0 0 0 0 0 0 
211 0.111733 0.0623727 -1.6676e-21 0 0 0 0 0 0 0 
212 0.111733 0.0623727 -1.81318e-21 0 0 0 0 0 0 0 
213 -0.131619 0.0198302 -1.95876e-21 0 0 0 0 0 0 0 
214 -0.393699 -0.420635 -1.78671e-21 0 0 0 0 0 0 0 
215 0.111733 0.0623727 -1.95876e-21 0 0 0 0 0 0 0 
216 0.0166496 0.0533624 -1.85288e-21 0 0 0 0 0 0 0 
217 0.111733 0.0623727 -2.02494e-21 0 0 0 0 0 0 0 
218 0.112973 0.0625899 -1.99847e-21 0 0 0 0 0 0 0 
219 0.111718 0.0623715 -1.76024e-21 0 0 0 0 0 0 0 
220 -0.362983 -0.147918 -1.6676e-21 0 0 0 0 0 0 0 
221 0.11284 0.0635217 -1.78671e-21 0 0 0 0 0 0 0 
222 0.111731 0.0623727 -1.83965e-21 0 0 0 0 0 0 0 
223 0.111767 0.0623627 -1.81318e-21 0 0 0 0 0 0 0 
224 0.113648 0.063096 -1.58819e-21 0 0 0 0 0 0 0 
225 0.111728 0.0623725 -1.69407e-21 0 0 0 0 0 0 0 
226 0.0177064 0.051611 -1.76024e-21 0 0 0 0 0 0 0 
227 0.111733 0.0623727 -1.65436e-21 0 0 0 0 0 0 0 
228 0.111914 0.0623527 -1.81318e-21 0 0 0 0 0 0 0 
229 0.111698 0.0623687 -1.81318e-21 0 0 0 0 0 0 0 
230 0.0930735 0.0627959 -1.68083e-21 0 0 0 0 0 0 0 
231 0.111733 0.0623727 -1.45584e-21 0 0 0 0 0 0 0 
232 0.111733 0.0623727 -1.94553e-21 0 0 0 0 0 0 0 
233 -0.422135 -0.147342 -1.6676e-21 0 0 0 0 0 0 0 
234 -0.14526 0.0113147 -1.972e-21 0 0 0 0 0 0 0 
235 0.111733 0.0623727 -1.94553e-21 0 0 0 0 0 0 0 
236 -0.440896 -0.46392 -1.73377e-21 0 0 0 0 0 0 0 
237 0.111733 0.0623727 -1.99847e-21 0 0 0 0 0 0 0 
238 0.111732 0.0623727 -1.81318e-21 0 0 0 0 0 0 0 
239 0.112584 0.0626503 -2.26317e-21 0 0 0 0 0 0 0 
240 0.111731 0.0623726 -1.89259e-21 0 0 0 0 0 0 0 
241 0.0982442 0.0628508 -1.87935e-21 0 0 0 0 0 0 0 
242 -0.096082 0.0314784 -1.81318e-21 0 0 0 0 0 0 0 
243 0.111731 0.0623727 -1.76024e-21 0 0 0 0 0 0 0 
244 0.111733 0.0623727 -1.60142e-21 0 0 0 0 0 0 0 
245 0.111924 0.0623799 -1.74701e-21 0 0 0 0 0 0 0 
246 0.111276 0.0629809 -1.73377e-21 0 0 0 0 0 0 0 
247 0.111733 0.0623727 -2.07788e-21 0 0 0 0 0 0 0 
248 0.0459343 0.0573161 -1.93229e-21 0 0 0 0 0 0 0 
249 0.112302 0.0624501 -1.54848e-21 0 0 0 0 0 0 0 
250 0.111733 0.0623727 -1.87935e-21 0 0 0 0 0 0 0 
251 -0.530572 -0.225924 -2.30287e-21 0 0 0 0 0 0 0 
252 0.111733 0.0623727 -1.81318e-21 0 0 0 0 0 0 0 
253 -0.287046 -0.0250408 -1.81318e-21 0 0 0 0 0 0 0 
254 0.111786 0.062375 -1.82641e-21 0 0 0 0 0 0 0 
255 0.111733 0.0623727 -1.74701e-21 0 0 0 0 0 0 0 
256 0.111733 0.0623727 -2.18376e-21 0 0 0 0 0 0 0 
257 0.111721 0.0625308 -1.81318e-21 0 0 0 0 0 0 0 
258 0.111733 0.0623727 -1.81318e-21 0 0 0 0 0 0 0 
259 0.111738 0.0623727 -1.81318e-21 0 0 0 0 0 0 0 
260 -0.488126 -0.553871 -1.33672e-21 0 0 0 0 0 0 0 
261 0.112111 0.0624303 -1.81318e-21 0 0 0 0 0 0 0 
262 0.0173614 0.0541414 -1.58819e-21 0 0 0 0 0 0 0 
263 -0.152651 0.0244345 -1.53525e-21 0 0 0 0 0 0 0 
264 0.111733 0.0623726 -2.02494e-21 0 0 0 0 0 0 0 
265 0.111782 0.0623735 -1.79995e-21 0 0 0 0 0 0 0 
266 0.111733 0.0623727 -1.72054e-21 0 0 0 0 0 0 0 
267 0.108722 0.062585 -1.81318e-21 0 0 0 0 0 0 0 
268 0.111733 0.0623726 -1.50878e-21 0 0 0 0 0 0 0 
269 0.111733 0.0623727 -1.81318e-21 0 0 0 0 0 0 0 
270 0.111763 0.0623735 -1.91906e-21 0 0 0 0 0 0 0 
271 0.0817386 0.0608224 -1.79995e-21 0 0 0 0 0 0 0 
272 0.111733 0.0623727 -1.93229e-21 0 0 0 0 0 0 0 
273 -0.593933 -0.262885 -2.02494e-21 0 0 0 0 0 0 0 
274 0.112373 0.0624457 -2.22346e-21 0 0 0 0 0 0 0 
275 -0.341817 -0.0453535 -2.03817e-21 0 0 0 0 0 0 0 
276 0.111733 0.0623727 -1.72054e-21 0 0 0 0 0 0 0 
277 0.111733 0.0623727 -1.61466e-21 0 0 0 0 0 0 0 
278 0.111989 0.0623888 -1.83965e-21 0 0 0 0 0 0 0 
279 0.112549 0.0626311 -1.83965e-21 0 0 0 0 0 0 0 
280 0.111733 0.0623727 -1.81318e-21 0 0 0 0 0 0 0 
281 0.111731 0.0623725 -2.2764e-21 0 0 0 0 0 0 0 
282 -0.535406 -0.611358 -1.82641e-21 0 0 0 0 0 0 0 
283 0.111741 0.0623726 -1.68083e-21 0 0 0 0 0 0 0 
284 -0.230916 0.00600402 -2.05141e-21 0 0 0 0 0 0 0 
285 0.0704521 0.0601972 -1.73377e-21 0 0 0 0 0 0 0 
286 0.111733 0.0623727 -1.82641e-21 0 0 0 0 0 0 0 
287 0.11173 0.0623724 -1.57495e-21 0 0 0 0 0 0 0 
288 0.111733 0.0623727 -1.81318e-21 0 0 0 0 0 0 0 
289 -0.0138489 0.0510459 -1.91906e-21 0 0 0 0 0 0 0 
290 0.111733 0.0623727 -2.05141e-21 0 0 0 0 0 0 0 
291 0.111934 0.0623892 -1.81318e-21 0 0 0 0 0 0 0 
292 0.111732 0.0623726 -1.48231e-21 0 0 0 0 0 0 0 
293 0.111947 0.0625922 -1.87935e-21 0 0 0 0 0 0 0 
294 -0.677619 -0.354788 -1.50878e-21 0 0 0 0 0 0 0 
295 -0.462433 -0.100497 -1.7073e-21 0 0 0 0 0 0 0 
296 0.111783 0.062375 -1.82641e-21 0 0 0 0 0 0 0 
297 0.106779 0.0626369 -1.62789e-21 0 0 0 0 0 0 0 
298 0.111733 0.0623727 -1.57495e-21 0 0 0 0 0 0 0 
299 0.111733 0.0623727 -1.58819e-21 0 0 0 0 0 0 0 
300 0.111731 0.0623725 -1.82641e-21 0 0 0 0 0 0 0 
301 0.111733 0.0623727 -1.79995e-21 0 0 0 0 0 0 0 
302 0.111732 0.0623726 -2.31611e-21 0 0 0 0 0 0 0 
303 0.112237 0.0624445 -1.65436e-21 0 0 0 0 0 0 0 
304 -0.510214 -0.74797 -2.03817e-21 0 0 0 0 0 0 0 
305 -0.451466 -0.0724573 -1.83965e-21 0 0 0 0 0 0 0 
306 0.0124794 0.0557574 -1.79995e-21 0 0 0 0 0 0 0 
307 0.111769 0.0623715 -1.79995e-21 0 0 0 0 0 0 0 
308 0.111733 0.0623727 -2.02494e-21 0 0 0 0 0 0 0 
309 0.111733 0.0623727 -2.09111e-21 0 0 0 0 0 0 0 
310 -0.673059 -0.348616 -1.99847e-21 0 0 0 0 0 0 0 
311 -0.151648 0.0282832 -1.69407e-21 0 0 0 0 0 0 0 
312 0.111733 0.0623727 -1.78671e-21 0 0 0 0 0 0 0 
313 0.111728 0.0623723 -1.81318e-21 0 0 0 0 0 0 0 
314 0.107383 0.0629052 -2.06464e-21 0 0 0 0 0 0 0 
315 0.111732 0.0623726 -1.72054e-21 0 0 0 0 0 0 0 
316 0.11173 0.0623715 -2.11758e-21 0 0 0 0 0 0 0 
317 0.112082 0.0624206 -2.19699e-21 0 0 0 0 0 0 0 
318 0.0917739 0.0629787 -1.45584e-21 0 0 0 0 0 0 0 
319 0.111733 0.0623727 -1.98523e-21 0 0 0 0 0 0 0 
320 0.111733 0.0623726 -1.74701e-21 0 0 0 0 0 0 0 
321 0.111902 0.0623763 -1.41613e-21 0 0 0 0 0 0 0 
322 0.111733 0.0623727 -1.58819e-21 0 0 0 0 0 0 0 
323 0.111731 0.0623724 -2.0117e-21 0 0 0 0 0 0 0 
324 0.111663 0.0625874 -1.49554e-21 0 0 0 0 0 0 0 
325 -0.639973 -0.601038 -1.62789e-21 0 0 0 0 0 0 0 
326 -0.189971 0.00461499 -2.02494e-21 0 0 0 0 0 0 0 
327 0.111733 0.0623727 -1.25731e-21 0 0 0 0 0 0 0 
328 0.111733 0.0623727 -1.82641e-21 0 0 0 0 0 0 0 
329 0.0880705 0.0622477 -1.972e-21 0 0 0 0 0 0 0 
330 -0.541107 -0.201834 -1.60142e-21 0 0 0 0 0 0 0 
331 0.111732 0.0623727 -1.91906e-21 0 0 0 0 0 0 0 
332 0.112027 0.062384 -2.17052e-21 0 0 0 0 0 0 0 
333 -0.00404871 0.0494245 -1.81318e-21 0 0 0 0 0 0 0 
334 0.111733 0.0623727 -2.10435e-21 0 0 0 0 0 0 0 
335 0.112934 0.0627354 -2.07788e-21 0 0 0 0 0 0 0 
336 0.111733 0.0623706 -1.53525e-21 0 0 0 0 0 0 0 
337 0.11173 0.0623724 -1.48231e-21 0 0 0 0 0 0 0 
338 0.111053 0.063326 -1.7073e-21 0 0 0 0 0 0 0 
339 0.111733 0.0623727 -1.77348e-21 0 0 0 0 0 0 0 
340 0.111799 0.062371 -2.13082e-21 0 0 0 0 0 0 0 
341 0.111732 0.0623726 -1.72054e-21 0 0 0 0 0 0 0 
342 0.112691 0.0624754 -1.56172e-21 0 0 0 0 0 0 0 
343 -0.665488 -0.256101 -2.32934e-21 0 0 0 0 0 0 0 
344 0.111733 0.0623727 -1.83965e-21 0 0 0 0 0 0 0 
345 0.111727 0.0623718 -1.81318e-21 0 0 0 0 0 0 0 
346 -0.0325033 0.0521237 -1.53525e-21 0 0 0 0 0 0 0 
347 0.111733 0.0623727 -1.60142e-21 0 0 0 0 0 0 0 
348 0.111733 0.0623727 -1.972e-21 0 0 0 0 0 0 0 
349 -0.643007 -0.702358 -1.79995e-21 0 0 0 0 0 0 0 
350 -0.289339 -0.00569232 -1.83965e-21 0 0 0 0 0 0 0 
351 0.111733 0.0623727 -2.11758e-21 0 0 0 0 0 0 0 
352 0.113477 0.0625929 -1.78671e-21 0 0 0 0 0 0 0 
353 0.112901 0.0639784 -1.89259e-21 0 0 0 0 0 0 0 
354 0.111732 0.0623726 -2.03817e-21 0 0 0 0 0 0 0 
355 0.111733 0.0623727 -1.972e-21 0 0 0 0 0 0 0 
356 0.111733 0.0623727 -1.82641e-21 0 0 0 0 0 0 0 
357 0.111883 0.0623796 -1.42937e-21 0 0 0 0 0 0 0 
358 0.0794783 0.0635337 -2.02494e-21 0 0 0 0 0 0 0 
359 0.111731 0.0623724 -1.61466e-21 0 0 0 0 0 0 0 
360 -0.805827 -0.373405 -1.81318e-21 0 0 0 0 0 0 0 
361 -0.447256 -0.0748818 -1.81318e-21 0 0 0 0 0 0 0 
362 0.112271 0.0624164 -1.78671e-21 0 0 0 0 0 0 0 
363 0.115285 0.0631128 -1.41613e-21 0 0 0 0 0 0 0 
364 0.111732 0.0623726 -1.60142e-21 0 0 0 0 0 0 0 
365 0.111733 0.0623727 -1.74701e-21 0 0 0 0 0 0 0 
366 0.111733 0.0623727 -1.81318e-21 0 0 0 0 0 0 0 
367 0.111733 0.0623727 -1.50878e-21 0 0 0 0 0 0 0 
368 0.0524307 0.0608006 -1.46907e-21 0 0 0 0 0 0 0 
369 -0.674912 -0.834637 -1.79995e-21 0 0 0 0 0 0 0 
370 0.111746 0.0623719 -1.79995e-21 0 0 0 0 0 0 0 
371 -0.303057 -0.00789989 -2.07788e-21 0 0 0 0 0 0 0 
372 0.111732 0.0623722 -1.82641e-21 0 0 0 0 0 0 0 
373 0.111733 0.0623727 -1.81318e-21 0 0 0 0 0 0 0 
374 -0.0446311 0.050858 -1.76024e-21 0 0 0 0 0 0 0 
375 0.11282 0.0625321 -1.99847e-21 0 0 0 0 0 0 0 
376 0.111904 0.0623711 -2.03817e-21 0 0 0 0 0 0 0 
377 0.111732 0.0623727 -2.10435e-21 0 0 0 0 0 0 0 
378 0.0869843 0.0625632 -1.89259e-21 0 0 0 0 0 0 0 
379 0.111733 0.0623727 -2.0117e-21 0 0 0 0 0 0 0 
380 -0.88097 -0.437947 -1.79995e-21 0 0 0 0 0 0 0 
381 -0.587408 -0.127466 -1.81318e-21 0 0 0 0 0 0 0 
382 0.111733 0.0623727 -1.81318e-21 0 0 0 0 0 0 0 
383 0.0295532 0.0577812 -1.82641e-21 0 0 0 0 0 0 0 
384 0.111879 0.0624708 -1.81318e-21 0 0 0 0 0 0 0 
385 0.107705 0.0625523 -2.09111e-21 0 0 0 0 0 0 0 
386 0.111728 0.0623723 -2.05141e-21 0 0 0 0 0 0 0 
387 0.111716 0.0623688 -1.83965e-21 0 0 0 0 0 0 0 
388 0.111733 0.0623727 -1.81318e-21 0 0 0 0 0 0 0 
389 0.111768 0.0623671 -1.85288e-21 0 0 0 0 0 0 0 
390 0.111733 0.0623727 -1.81318e-21 0 0 0 0 0 0 0 
391 -0.703684 -0.891154 -2.03817e-21 0 0 0 0 0 0 0 
392 0.111731 0.0623726 -1.54848e-21 0 0 0 0 0 0 0 
393 0.111733 0.0623727 -1.77348e-21 0 0 0 0 0 0 0 
394 -0.048102 0.0482564 -1.81318e-21 0 0 0 0 0 0 0 
395 -0.306701 -0.00965132 -1.87935e-21 0 0 0 0 0 0 0 
396 0.111719 0.062371 -2.14405e-21 0 0 0 0 0 0 0 
397 0.112301 0.0624423 -1.99847e-21 0 0 0 0 0 0 0 
398 -0.916385 -0.478532 -1.77348e-21 0 0 0 0 0 0 0 
399 0.111733 0.0623727 -1.81318e-21 0 0 0 0 0 0 0 
400 0.111733 0.0623727 -1.78671e-21 0 0 0 0 0 0 0 
401 0.111984 0.062386 -1.60142e-21 0 0 0 0 0 0 0 
402 -0.565176 -0.130712 -1.83965e-21 0 0 0 0 0 0 0 
403 0.100418 0.0631854 -1.76024e-21 0 0 0 0 0 0 0 
404 0.111733 0.0623727 -1.61466e-21 0 0 0 0 0 0 0 
405 0.0599686 0.0617303 -1.82641e-21 0 0 0 0 0 0 0 
406 0.111732 0.0623727 -1.95876e-21 0 0 0 0 0 0 0 
407 -0.707728 -0.960753 -1.79995e-21 0 0 0 0 0 0 0 
408 0.112309 0.0625521 -1.76024e-21 0 0 0 0 0 0 0 
409 0.111733 0.0623727 -1.81318e-21 0 0 0 0 0 0 0 
410 0.110402 0.0629208 -1.89259e-21 0 0 0 0 0 0 0 
411 -0.544141 -0.0917644 -1.65436e-21 0 0 0 0 0 0 0 
412 0.111731 0.0623721 -1.68083e-21 0 0 0 0 0 0 0 
413 0.0167196 0.0586009 -1.7073e-21 0 0 0 0 0 0 0 
414 0.111733 0.0623727 -1.99847e-21 0 0 0 0 0 0 0 
415 0.111733 0.0623727 -1.79995e-21 0 0 0 0 0 0 0 
416 0.111733 0.0623727 -1.95876e-21 0 0 0 0 0 0 0 
417 -0.913528 -0.459934 -1.52201e-21 0 0 0 0 0 0 0 
418 -0.202237 0.0214246 -1.94553e-21 0 0 0 0 0 0 0 
419 0.111838 0.0623718 -1.64113e-21 0 0 0 0 0 0 0 
420 0.111733 0.0623727 -1.53525e-21 0 0 0 0 0 0 0 
421 0.107257 0.0631584 -1.32349e-21 0 0 0 0 0 0 0 
422 0.111732 0.0623727 -1.89259e-21 0 0 0 0 0 0 0 
423 0.112308 0.0624271 -1.48231e-21 0 0 0 0 0 0 0 
424 0.111733 0.0623727 -1.61466e-21 0 0 0 0 0 0 0 
425 0.0840841 0.0634732 -2.30287e-21 0 0 0 0 0 0 0 
426 0.111733 0.0623727 -1.42937e-21 0 0 0 0 0 0 0 
427 0.111741 0.0623705 -1.64113e-21 0 0 0 0 0 0 0 
428 0.112027 0.0623726 -2.14405e-21 0 0 0 0 0 0 0 
429 -0.81822 -0.851862 -2.05141e-21 0 0 0 0 0 0 0 
430 0.11137 0.0626732 -2.09111e-21 0 0 0 0 0 0 0 
431 0.111733 0.0623727 -2.02494e-21 0 0 0 0 0 0 0 
432 -0.387835 -0.0304326 -1.58819e-21 0 0 0 0 0 0 0 
433 0.0658042 0.0630008 -1.4426e-21 0 0 0 0 0 0 0 
434 0.111733 0.0623727 -1.62789e-21 0 0 0 0 0 0 0 
435 0.111733 0.0623727 -2.22346e-21 0 0 0 0 0 0 0 
436 0.111733 0.0623727 -2.02494e-21 0 0 0 0 0 0 0 
437 -0.863568 -0.369125 -1.64113e-21 0 0 0 0 0 0 0 
438 -0.10546 0.0381971 -2.07788e-21 0 0 0 0 0 0 0 
439 0.111729 0.0623725 -1.68083e-21 0 0 0 0 0 0 0 
440 0.111609 0.0629526 -2.03817e-21 0 0 0 0 0 0 0 
441 0.111732 0.0623666 -2.2367e-21 0 0 0 0 0 0 0 
442 0.105422 0.0640697 -1.4029e-21 0 0 0 0 0 0 0 
443 0.111869 0.0623613 -1.33672e-21 0 0 0 0 0 0 0 
444 0.111733 0.0623727 -1.58819e-21 0 0 0 0 0 0 0 
445 0.111731 0.0623727 -1.37643e-21 0 0 0 0 0 0 0 
446 0.111733 0.0623727 -1.64113e-21 0 0 0 0 0 0 0 
447 0.111725 0.0623705 -1.64113e-21 0 0 0 0 0 0 0 
448 0.111733 0.0623727 -1.60142e-21 0 0 0 0 0 0 0 
449 0.113244 0.0626186 -1.99847e-21 0 0 0 0 0 0 0 
450 0.112272 0.0623777 -2.0117e-21 0 0 0 0 0 0 0 
451 -0.140643 0.0331853 -1.60142e-21 0 0 0 0 0 0 0 
452 -0.854768 -0.83121 -1.81318e-21 0 0 0 0 0 0 0 
453 0.107382 0.064697 -2.28964e-21 0 0 0 0 0 0 0 
454 0.111733 0.0623727 -1.81318e-21 0 0 0 0 0 0 0 
455 0.111733 0.0623727 -2.60727e-21 0 0 0 0 0 0 0 
456 0.111733 0.0623727 -1.81318e-21 0 0 0 0 0 0 0 
457 0.11173 0.0623725 -2.51463e-21 0 0 0 0 0 0 0 
458 0.0505353 0.0609072 -1.57495e-21 0 0 0 0 0 0 0 
459 -0.468406 -0.0544122 -1.79995e-21 0 0 0 0 0 0 0 
460 -0.913877 -0.393718 -1.82641e-21 0 0 0 0 0 0 0 
461 0.114177 0.0634491 -1.27055e-21 0 0 0 0 0 0 0 
462 0.111735 0.0623685 -1.81318e-21 0 0 0 0 0 0 0 
463 0.111892 0.062367 -1.79995e-21 0 0 0 0 0 0 0 
464 0.111732 0.0623726 -2.02494e-21 0 0 0 0 0 0 0 
465 0.111733 0.0623727 -8.33798e-22 0 0 0 0 0 0 0 
466 -0.387254 -0.0411599 -2.48816e-21 0 0 0 0 0 0 0 
467 -0.860139 -0.903975 -1.20437e-21 0 0 0 0 0 0 0 
468 0.028231 0.0585907 -1.81318e-21 0 0 0 0 0 0 0 
469 0.111733 0.0623727 -1.81318e-21 0 0 0 0 0 0 0 
470 0.111673 0.0625602 -1.81318e-21 0 0 0 0 0 0 0 
471 0.111725 0.0623721 -1.82641e-21 0 0 0 0 0 0 0 
472 0.112021 0.0623926 -1.81318e-21 0 0 0 0 0 0 0 
473 0.111728 0.0623709 -1.81318e-21 0 0 0 0 0 0 0 
474 -0.123929 0.0387194 -1.99847e-21 0 0 0 0 0 0 0 
475 -0.760868 -0.364431 -2.10435e-21 0 0 0 0 0 0 0 
476 0.111732 0.0623727 -1.11173e-21 0 0 0 0 0 0 0 
477 0.111733 0.0623727 -1.98523e-21 0 0 0 0 0 0 0 
478 0.0414727 0.0597365 -2.38228e-21 0 0 0 0 0 0 0 
479 0.111733 0.0623727 -1.25731e-21 0 0 0 0 0 0 0 
480 0.111733 0.0623727 -1.58819e-21 0 0 0 0 0 0 0 
481 0.111732 0.0623726 -1.42937e-21 0 0 0 0 0 0 0 
482 0.11173 0.0623725 -2.2367e-21 0 0 0 0 0 0 0 
483 0.106263 0.0622761 -1.48231e-21 0 0 0 0 0 0 0 
484 -0.105843 0.0419085 -1.20437e-21 0 0 0 0 0 0 0 
485 0.111733 0.0623727 -2.26317e-21 0 0 0 0 0 0 0 
486 -0.881119 -0.305706 -1.45584e-21 0 0 0 0 0 0 0 
487 0.11195 0.0623833 -2.2367e-21 0 0 0 0 0 0 0 
488 0.111774 0.0623711 -1.28378e-21 0 0 0 0 0 0 0 
489 0.0903036 0.0620258 -1.36319e-21 0 0 0 0 0 0 0 
490 -0.379815 -0.0280916 -2.26317e-21 0 0 0 0 0 0 0 
491 -0.889616 -0.860355 -2.59404e-21 0 0 0 0 0 0 0 
492 0.111733 0.0623727 -1.81318e-21 0 0 0 0 0 0 0 
493 0.111732 0.0623726 -2.81903e-21 0 0 0 0 0 0 0 
494 0.111733 0.0623727 -2.72639e-21 0 0 0 0 0 0 0 
495 0.111732 0.0623724 -1.31025e-21 0 0 0 0 0 0 0 
496 0.111423 0.0625995 -2.52786e-21 0 0 0 0 0 0 0 
497 0.112242 0.0624468 -1.0985e-21 0 0 0 0 0 0 0 
498 0.111733 0.0623727 -1.37643e-21 0 0 0 0 0 0 0 
499 0.111744 0.0623711 -2.14405e-21 0 0 0 0 0 0 0 
500 0.111732 0.0623726 -1.38966e-21 0 0 0 0 0 0 0 
501 0.0852819 0.0634688 -1.37643e-21 0 0 0 0 0 0 0 
502 0.111734 0.062372 -2.36905e-21 0 0 0 0 0 0 0 
503 0.111733 0.0623727 -1.77348e-21 0 0 0 0 0 0 0 
504 0.111733 0.0623727 -2.35581e-21 0 0 0 0 0 0 0 
505 -0.259408 0.0117635 -1.6676e-21 0 0 0 0 0 0 0 
506 -1.04672 -0.519196 -1.54848e-21 0 0 0 0 0 0 0 
507 0.105067 0.0632124 -1.86612e-21 0 0 0 0 0 0 0 
508 -0.0191153 0.0544441 -1.61466e-21 0 0 0 0 0 0 0 
509 0.112176 0.0624031 -2.39552e-21 0 0 0 0 0 0 0 
510 -0.659454 -0.12155 -1.78671e-21 0 0 0 0 0 0 0 
511 0.111733 0.0623727 -2.28964e-21 0 0 0 0 0 0 0 
512 -0.82272 -1.12014 -1.79995e-21 0 0 0 0 0 0 0 
513 0.111781 0.0623685 -2.19699e-21 0 0 0 0 0 0 0 
514 0.111733 0.0623727 -1.74701e-21 0 0 0 0 0 0 0 
515 0.111733 0.0623726 -1.81318e-21 0 0 0 0 0 0 0 
516 0.104409 0.0628033 -1.79995e-21 0 0 0 0 0 0 0 
517 0.111732 0.0623723 -1.54848e-21 0 0 0 0 0 0 0 
518 0.111955 0.06237 -1.37643e-21 0 0 0 0 0 0 0 
519 0.111392 0.0625743 -1.11173e-21 0 0 0 0 0 0 0 
520 -0.74667 -0.149025 -1.24408e-21 0 0 0 0 0 0 0 
521 -1.06218 -0.542928 -1.61466e-21 0 0 0 0 0 0 0 
522 0.111733 0.0623727 -9.52912e-22 0 0 0 0 0 0 0 
523 0.111733 0.0623727 -1.94553e-21 0 0 0 0 0 0 0 
524 -0.0362095 0.0510914 -1.81318e-21 0 0 0 0 0 0 0 
525 0.11174 0.0623709 -1.31025e-21 0 0 0 0 0 0 0 
526 0.111733 0.0623727 -2.59404e-21 0 0 0 0 0 0 0 
527 -0.312972 -0.00152045 -2.67345e-21 0 0 0 0 0 0 0 
528 0.0704239 0.0619028 -1.79995e-21 0 0 0 0 0 0 0 
529 0.111732 0.0623725 -1.78671e-21 0 0 0 0 0 0 0 
530 -0.947747 -0.957824 -2.2764e-21 0 0 0 0 0 0 0 
531 0.11112 0.0628997 -2.11758e-21 0 0 0 0 0 0 0 
532 0.111733 0.0623727 -2.2764e-21 0 0 0 0 0 0 0 
533 0.112065 0.0623791 -2.0117e-21 0 0 0 0 0 0 0 
534 0.111742 0.0623701 -1.79995e-21 0 0 0 0 0 0 0 
535 0.111733 0.0623727 -1.46907e-21 0 0 0 0 0 0 0 
536 0.111733 0.0623727 -1.4029e-21 0 0 0 0 0 0 0 
537 0.112395 0.0625027 -1.79995e-21 0 0 0 0 0 0 0 
538 -0.435985 -0.0339332 -1.48231e-21 0 0 0 0 0 0 0 
539 0.0628922 0.0624815 -1.82641e-21 0 0 0 0 0 0 0 
540 0.11173 0.0623725 -1.79995e-21 0 0 0 0 0 0 0 
541 -0.928222 -0.387663 -1.38966e-21 0 0 0 0 0 0 0 
542 0.111821 0.062368 -1.54848e-21 0 0 0 0 0 0 0 
543 0.111733 0.0623727 -1.81318e-21 0 0 0 0 0 0 0 
544 0.111728 0.0623719 -1.79995e-21 0 0 0 0 0 0 0 
545 0.100232 0.0639625 -1.60142e-21 0 0 0 0 0 0 0 
546 0.111733 0.0623727 -1.81318e-21 0 0 0 0 0 0 0 
547 0.111732 0.0623726 -1.81318e-21 0 0 0 0 0 0 0 
548 -0.120859 0.0403534 -1.79995e-21 0 0 0 0 0 0 0 
549 0.111733 0.0623727 -2.2764e-21 0 0 0 0 0 0 0 
550 0.112641 0.0625495 -1.78671e-21 0 0 0 0 0 0 0 
551 -0.947953 -0.876065 -1.81318e-21 0 0 0 0 0 0 0 
552 0.111849 0.0623762 -1.94553e-21 0 0 0 0 0 0 0 
553 0.111732 0.0623726 -1.81318e-21 0 0 0 0 0 0 0 
554 0.111733 0.0623727 -1.79995e-21 0 0 0 0 0 0 0 
555 0.099751 0.0633171 -2.05141e-21 0 0 0 0 0 0 0 
556 0.111728 0.062372 -2.13082e-21 0 0 0 0 0 0 0 
557 0.111029 0.0627633 -1.81318e-21 0 0 0 0 0 0 0 
558 0.112174 0.0624137 -1.81318e-21 0 0 0 0 0 0 0 
559 0.111733 0.0623727 -8.33798e-22 0 0 0 0 0 0 0 
560 -1.0291 -0.443609 -1.64113e-21 0 0 0 0 0 0 0 
561 -0.142421 0.0378051 -1.81318e-21 0 0 0 0 0 0 0 
562 0.111733 0.0623727 -1.81318e-21 0 0 0 0 0 0 0 
563 0.111748 0.0623719 -1.91906e-21 0 0 0 0 0 0 0 
564 0.11173 0.0623724 -1.15144e-21 0 0 0 0 0 0 0 
565 0.111733 0.0623727 -1.81318e-21 0 0 0 0 0 0 0 
566 0.0410995 0.0606739 -2.48816e-21 0 0 0 0 0 0 0 
567 -0.503268 -0.0556605 -1.25731e-21 0 0 0 0 0 0 0 
568 0.111733 0.0623727 -1.81318e-21 0 0 0 0 0 0 0 
569 0.109935 0.0622132 -1.94553e-21 0 0 0 0 0 0 0 
570 -0.912442 -1.06084 -2.24993e-21 0 0 0 0 0 0 0 
571 0.112017 0.0623943 -1.82641e-21 0 0 0 0 0 0 0 
572 0.111731 0.0623726 -2.5411e-21 0 0 0 0 0 0 0 
573 0.111732 0.0623727 -1.07203e-21 0 0 0 0 0 0 0 
574 0.111999 0.0623816 -2.21023e-21 0 0 0 0 0 0 0 
575 -0.35043 -0.0145086 -1.91906e-21 0 0 0 0 0 0 0 
576 0.0599925 0.0610765 -1.1382e-21 0 0 0 0 0 0 0 
577 0.111733 0.0623727 -2.2367e-21 0 0 0 0 0 0 0 
578 0.100777 0.0613267 -1.61466e-21 0 0 0 0 0 0 0 
579 0.111733 0.0623727 -2.19699e-21 0 0 0 0 0 0 0 
580 0.111745 0.062373 -1.81318e-21 0 0 0 0 0 0 0 
581 -1.19146 -0.615739 -1.81318e-21 0 0 0 0 0 0 0 
582 -0.725372 -0.167583 -2.68668e-21 0 0 0 0 0 0 0 
583 -0.0447296 0.0505806 -1.79995e-21 0 0 0 0 0 0 0 
584 0.111817 0.0623777 -1.23084e-21 0 0 0 0 0 0 0 
585 0.111733 0.0623727 -2.67345e-21 0 0 0 0 0 0 0 