VARIABLES = "Cell" "Mode 0" "Mode 1" "Mode 2" "Mode 3" "Mode 4" "Mode 5" "Mode 6" "Mode 7" "Mode 8" "Mode 9" 
ZONE T = Iteration4
0 0.202008 0.162327 0.11804 0.0775759 0.0467888 -1.82641e-21 0 0 0 0 
1 0.199864 0.159344 0.119073 0.0881957 0.0546934 -1.79995e-21 0 0 0 0 
2 0.209771 0.17479 0.143943 0.11029 0.0624446 -1.81318e-21 0 0 0 0 
3 0.210729 0.177341 0.145253 0.110197 0.0622742 -1.82641e-21 0 0 0 0 
4 0.22625 0.190458 0.151636 0.11175 0.062391 -1.81318e-21 0 0 0 0 
5 0.228368 0.191152 0.151792 0.111745 0.0623743 -1.79995e-21 0 0 0 0 
6 0.215159 0.186329 0.150915 0.111688 0.0623757 -1.79995e-21 0 0 0 0 
7 0.227991 0.191001 0.151675 0.111689 0.0623647 -1.81318e-21 0 0 0 0 
8 0.22866 0.191224 0.151791 0.11174 0.0623735 -1.81318e-21 0 0 0 0 
9 0.228994 0.191219 0.151768 0.111733 0.0623727 -1.82641e-21 0 0 0 0 
10 0.228991 0.191219 0.151768 0.111733 0.0623727 -1.81318e-21 0 0 0 0 
11 0.228971 0.191213 0.151767 0.111733 0.0623727 -1.81318e-21 0 0 0 0 
12 0.22897 0.191213 0.151767 0.111733 0.0623727 -1.82641e-21 0 0 0 0 
13 0.22897 0.191213 0.151767 0.111733 0.0623727 -1.81318e-21 0 0 0 0 
14 0.228973 0.191214 0.151767 0.111733 0.0623727 -1.81318e-21 0 0 0 0 
15 0.201013 0.174728 0.146047 0.110853 0.0623708 -1.82641e-21 0 0 0 0 
16 0.225445 0.190613 0.151771 0.111753 0.0623769 -1.82641e-21 0 0 0 0 
17 0.227694 0.191118 0.151803 0.111747 0.062375 -1.82641e-21 0 0 0 0 
18 0.198933 0.157628 0.118624 0.0920183 0.0577893 -1.81318e-21 0 0 0 0 
19 0.22897 0.191213 0.151767 0.111733 0.0623727 -1.79995e-21 0 0 0 0 
20 0.199469 0.162309 0.122733 0.079664 0.0271526 -1.79995e-21 0 0 0 0 
21 0.195333 0.156246 0.126498 0.102424 0.0613695 -1.82641e-21 0 0 0 0 
22 0.216746 0.187311 0.151098 0.11171 0.0623827 -1.81318e-21 0 0 0 0 
23 0.228982 0.191215 0.151767 0.111733 0.0623727 -1.79995e-21 0 0 0 0 
24 0.228971 0.191213 0.151767 0.111733 0.0623727 -1.82641e-21 0 0 0 0 
25 0.229031 0.191239 0.15177 0.111733 0.0623726 -1.77348e-21 0 0 0 0 
26 0.229031 0.191271 0.151775 0.111732 0.0623725 -1.81318e-21 0 0 0 0 
27 0.22897 0.191213 0.151767 0.111733 0.0623727 -1.81318e-21 0 0 0 0 
28 0.228969 0.191213 0.151767 0.111733 0.0623727 -1.78671e-21 0 0 0 0 
29 0.22897 0.191213 0.151767 0.111733 0.0623727 -1.81318e-21 0 0 0 0 
30 0.22897 0.191213 0.151767 0.111733 0.0623727 -1.79995e-21 0 0 0 0 
31 0.196235 0.158121 0.11528 0.0757989 0.0456542 -1.81318e-21 0 0 0 0 
32 0.168235 0.148292 0.134457 0.109194 0.0626096 -1.82641e-21 0 0 0 0 
33 0.206786 0.183283 0.150332 0.111717 0.062394 -1.79995e-21 0 0 0 0 
34 0.228969 0.191212 0.151767 0.111733 0.0623727 -1.78671e-21 0 0 0 0 
35 0.228993 0.191216 0.151767 0.111733 0.0623727 -1.79995e-21 0 0 0 0 
36 0.218318 0.188798 0.151654 0.111785 0.0623754 -1.79995e-21 0 0 0 0 
37 0.229048 0.191227 0.151767 0.111732 0.0623726 -1.79995e-21 0 0 0 0 
38 0.228968 0.191212 0.151767 0.111733 0.0623727 -1.82641e-21 0 0 0 0 
39 0.163841 0.130196 0.114796 0.100968 0.0617861 -1.77348e-21 0 0 0 0 
40 0.228804 0.191488 0.151813 0.11172 0.0623696 -1.79995e-21 0 0 0 0 
41 0.229307 0.191381 0.151766 0.111721 0.062371 -1.79995e-21 0 0 0 0 
42 0.177007 0.164751 0.144262 0.111155 0.0625028 -1.81318e-21 0 0 0 0 
43 0.228977 0.191213 0.151767 0.111733 0.0623727 -1.83965e-21 0 0 0 0 
44 0.22897 0.191213 0.151767 0.111733 0.0623727 -1.86612e-21 0 0 0 0 
45 0.217579 0.189972 0.152158 0.111839 0.0623662 -1.79995e-21 0 0 0 0 
46 0.166137 0.124297 0.0768793 0.043284 0.0339508 -1.79995e-21 0 0 0 0 
47 0.228969 0.191213 0.151767 0.111733 0.0623727 -1.85288e-21 0 0 0 0 
48 0.225838 0.19155 0.152036 0.111754 0.0623656 -1.78671e-21 0 0 0 0 
49 0.149034 0.107242 0.0802197 0.0753335 0.0555881 -1.81318e-21 0 0 0 0 
50 0.229199 0.191246 0.151764 0.111731 0.0623725 -1.82641e-21 0 0 0 0 
51 0.229508 0.191343 0.151769 0.111729 0.0623721 -1.82641e-21 0 0 0 0 
52 0.140976 0.105034 0.0635634 0.0161006 -0.0249904 -1.79995e-21 0 0 0 0 
53 0.22897 0.191213 0.151767 0.111733 0.0623727 -1.79995e-21 0 0 0 0 
54 0.229003 0.191214 0.151766 0.111732 0.0623726 -1.82641e-21 0 0 0 0 
55 0.15792 0.160141 0.144663 0.111621 0.062571 -1.81318e-21 0 0 0 0 
56 0.195636 0.183468 0.151751 0.112107 0.0624227 -1.81318e-21 0 0 0 0 
57 0.115788 0.0666951 0.0456984 0.0612981 0.0543163 -1.81318e-21 0 0 0 0 
58 0.229112 0.19123 0.151765 0.111732 0.0623726 -1.85288e-21 0 0 0 0 
59 0.22897 0.191212 0.151767 0.111733 0.0623727 -1.81318e-21 0 0 0 0 
60 0.119179 0.0731055 0.021639 0.000385723 0.0179846 -1.81318e-21 0 0 0 0 
61 0.22901 0.191217 0.151766 0.111733 0.0623726 -1.77348e-21 0 0 0 0 
62 0.11535 0.125833 0.130534 0.109919 0.0629146 -1.76024e-21 0 0 0 0 
63 0.0815386 0.0668581 0.0830684 0.0931697 0.0615864 -1.83965e-21 0 0 0 0 
64 0.224727 0.192051 0.152412 0.111886 0.0623849 -1.79995e-21 0 0 0 0 
65 0.228969 0.191213 0.151767 0.111733 0.0623727 -1.81318e-21 0 0 0 0 
66 0.228977 0.191213 0.151767 0.111733 0.0623727 -1.78671e-21 0 0 0 0 
67 0.230111 0.191631 0.151835 0.111737 0.0623723 -1.83965e-21 0 0 0 0 
68 0.174852 0.177612 0.152023 0.112699 0.0626488 -1.78671e-21 0 0 0 0 
69 0.102695 0.0670746 0.0181775 -0.0353094 -0.0544666 -1.74701e-21 0 0 0 0 
70 0.228969 0.191213 0.151767 0.111733 0.0623727 -1.90582e-21 0 0 0 0 
71 0.229238 0.191262 0.151771 0.111733 0.0623726 -1.76024e-21 0 0 0 0 
72 0.124313 0.146543 0.143009 0.112395 0.0627522 -1.83965e-21 0 0 0 0 
73 0.229658 0.192181 0.152049 0.11177 0.0623735 -1.77348e-21 0 0 0 0 
74 0.202918 0.187673 0.152843 0.112271 0.0624535 -1.87935e-21 0 0 0 0 
75 0.229114 0.191236 0.151768 0.111732 0.0623725 -1.89259e-21 0 0 0 0 
76 0.0479224 0.0293509 0.0570152 0.0839909 0.0606102 -1.82641e-21 0 0 0 0 
77 0.0694698 0.09304 0.115283 0.106365 0.062656 -1.82641e-21 0 0 0 0 
78 0.229689 0.19139 0.151788 0.111733 0.0623725 -1.77348e-21 0 0 0 0 
79 0.228979 0.191214 0.151767 0.111733 0.0623727 -1.81318e-21 0 0 0 0 
80 0.081798 0.0380139 -0.0234025 -0.0569171 -0.0100955 -1.85288e-21 0 0 0 0 
81 0.22897 0.191213 0.151767 0.111733 0.0623727 -1.76024e-21 0 0 0 0 
82 0.0584675 -0.000278958 -0.0175404 0.0250107 0.0475522 -1.79995e-21 0 0 0 0 
83 0.229045 0.19122 0.151766 0.111732 0.0623726 -1.65436e-21 0 0 0 0 
84 0.228995 0.191215 0.151767 0.111733 0.0623726 -1.6676e-21 0 0 0 0 
85 0.228973 0.191213 0.151767 0.111733 0.0623727 -1.78671e-21 0 0 0 0 
86 0.187259 0.183211 0.152486 0.112202 0.0623654 -1.79995e-21 0 0 0 0 
87 0.0537504 0.0229895 -0.0140175 -0.0771745 -0.123331 -1.81318e-21 0 0 0 0 
88 0.228969 0.191213 0.151767 0.111733 0.0623727 -1.81318e-21 0 0 0 0 
89 0.228576 0.192495 0.152201 0.111776 0.062373 -1.89259e-21 0 0 0 0 
90 0.0331912 0.0812104 0.115461 0.106538 0.0624008 -1.81318e-21 0 0 0 0 
91 0.0411719 -0.0368924 -0.0513112 0.0205319 0.048101 -1.7073e-21 0 0 0 0 
92 0.229768 0.191388 0.15178 0.111732 0.0623726 -1.87935e-21 0 0 0 0 
93 0.228978 0.191211 0.151766 0.111733 0.0623727 -1.85288e-21 0 0 0 0 
94 0.114211 0.149962 0.14519 0.112129 0.0622966 -1.85288e-21 0 0 0 0 
95 0.217773 0.191683 0.152776 0.11191 0.0623736 -1.85288e-21 0 0 0 0 
96 0.229077 0.191215 0.151764 0.111732 0.0623727 -1.79995e-21 0 0 0 0 
97 0.229002 0.191209 0.151765 0.111733 0.0623727 -1.82641e-21 0 0 0 0 
98 -0.0176545 -0.0156114 0.0410613 0.0810165 0.0595156 -1.77348e-21 0 0 0 0 
99 0.0332493 0.0123069 -0.0610093 -0.14351 -0.0652916 -1.89259e-21 0 0 0 0 
100 0.228986 0.19121 0.151765 0.111733 0.0623727 -1.77348e-21 0 0 0 0 
101 0.0418669 -0.01655 -0.0994016 -0.0697789 0.0152701 -1.83965e-21 0 0 0 0 
102 0.230188 0.191834 0.15189 0.111741 0.0623728 -1.81318e-21 0 0 0 0 
103 0.228968 0.191212 0.151767 0.111733 0.0623727 -1.73377e-21 0 0 0 0 
104 0.228967 0.191212 0.151767 0.111733 0.0623727 -1.87935e-21 0 0 0 0 
105 0.229301 0.191249 0.151763 0.111732 0.0623727 -1.81318e-21 0 0 0 0 
106 -0.043659 -0.0555387 0.0186803 0.0757362 0.0589532 -1.82641e-21 0 0 0 0 
107 0.0947135 0.149321 0.146114 0.112169 0.0625136 -1.69407e-21 0 0 0 0 
108 -0.000648559 -0.0999893 -0.0988622 -0.000172449 0.043239 -1.81318e-21 0 0 0 0 
109 0.228969 0.191213 0.151767 0.111733 0.0623727 -1.77348e-21 0 0 0 0 
110 0.228951 0.191206 0.151766 0.111733 0.0623727 -1.87935e-21 0 0 0 0 
111 0.00166944 -0.0273032 -0.0504391 -0.12043 -0.217899 -1.86612e-21 0 0 0 0 
112 0.228954 0.19121 0.151767 0.111733 0.0623727 -1.91906e-21 0 0 0 0 
113 0.212027 0.191308 0.152792 0.111931 0.062382 -1.79995e-21 0 0 0 0 
114 0.229802 0.191912 0.151931 0.11175 0.0623729 -1.78671e-21 0 0 0 0 
115 0.229086 0.19121 0.151763 0.111733 0.0623727 -1.77348e-21 0 0 0 0 
116 0.169063 0.18068 0.152263 0.112225 0.0624252 -1.72054e-21 0 0 0 0 
117 0.228946 0.191199 0.151765 0.111733 0.0623727 -1.83965e-21 0 0 0 0 
118 -0.0748811 0.00922683 0.0894019 0.10263 0.0623704 -1.86612e-21 0 0 0 0 
119 0.228967 0.191212 0.151767 0.111733 0.0623727 -1.82641e-21 0 0 0 0 
120 -0.00625028 -0.0819398 -0.14271 -0.072065 0.0189042 -1.91906e-21 0 0 0 0 
121 0.226053 0.192426 0.152234 0.111786 0.062373 -1.6676e-21 0 0 0 0 
122 0.00964759 0.10285 0.13524 0.112195 0.0627915 -1.86612e-21 0 0 0 0 
123 0.228968 0.191213 0.151767 0.111733 0.0623727 -1.79995e-21 0 0 0 0 
124 -0.0055218 -0.0387613 -0.133506 -0.194523 -0.0806046 -1.83965e-21 0 0 0 0 
125 0.229375 0.191275 0.15177 0.111733 0.0623727 -1.86612e-21 0 0 0 0 
126 0.228997 0.191218 0.151768 0.111733 0.0623727 -1.76024e-21 0 0 0 0 
127 0.230021 0.191591 0.151821 0.111734 0.0623724 -1.87935e-21 0 0 0 0 
128 0.101052 0.154095 0.14863 0.11283 0.0625894 -2.11758e-21 0 0 0 0 
129 -0.10393 -0.173554 -0.0929169 0.0251363 0.0527123 -1.82641e-21 0 0 0 0 
130 -0.122673 -0.0703617 0.0355728 0.0860313 0.0612334 -1.79995e-21 0 0 0 0 
131 0.228976 0.191214 0.151767 0.111733 0.0623727 -1.73377e-21 0 0 0 0 
132 0.228972 0.191213 0.151767 0.111733 0.0623727 -1.98523e-21 0 0 0 0 
133 -0.0454027 -0.0547291 -0.0886443 -0.198231 -0.237625 -1.64113e-21 0 0 0 0 
134 0.222329 0.191427 0.152033 0.111749 0.0623702 -2.02494e-21 0 0 0 0 
135 0.229101 0.191245 0.151773 0.111734 0.0623727 -1.93229e-21 0 0 0 0 
136 0.230126 0.192092 0.151913 0.111731 0.0623712 -1.79995e-21 0 0 0 0 
137 0.0924741 0.148981 0.145022 0.111515 0.0623949 -1.65436e-21 0 0 0 0 
138 0.228977 0.191214 0.151767 0.111733 0.0623727 -1.60142e-21 0 0 0 0 
139 -0.0891989 -0.191821 -0.15594 -0.00814245 0.0467283 -1.78671e-21 0 0 0 0 
140 -0.124404 -0.038544 0.0624621 0.0947043 0.0614714 -1.94553e-21 0 0 0 0 
141 0.229623 0.191388 0.151798 0.111735 0.0623727 -1.79995e-21 0 0 0 0 
142 0.228993 0.191218 0.151768 0.111733 0.0623727 -1.85288e-21 0 0 0 0 
143 -0.0557547 -0.0728738 -0.16917 -0.269937 -0.126304 -1.85288e-21 0 0 0 0 
144 0.229292 0.19129 0.151781 0.111734 0.0623727 -1.68083e-21 0 0 0 0 
145 0.182675 0.181464 0.15089 0.111749 0.0623736 -1.64113e-21 0 0 0 0 
146 0.228979 0.191215 0.151767 0.111733 0.0623727 -1.64113e-21 0 0 0 0 
147 -0.0559405 -0.153389 -0.232807 -0.131091 0.00583951 -1.82641e-21 0 0 0 0 
148 0.229029 0.191226 0.151769 0.111733 0.0623727 -1.74701e-21 0 0 0 0 
149 -0.16293 -0.139966 -0.0238051 0.0666916 0.0589979 -1.83965e-21 0 0 0 0 
150 -0.0400871 0.0711224 0.121211 0.108495 0.0623308 -1.85288e-21 0 0 0 0 
151 0.230194 0.191616 0.151808 0.11173 0.0623719 -1.81318e-21 0 0 0 0 
152 0.22897 0.191213 0.151767 0.111733 0.0623727 -1.91906e-21 0 0 0 0 
153 -0.0971796 -0.12504 -0.143313 -0.217828 -0.33793 -1.82641e-21 0 0 0 0 
154 0.228965 0.191211 0.151767 0.111733 0.0623727 -2.0117e-21 0 0 0 0 
155 -0.0987166 -0.190663 -0.26194 -0.138982 0.00837301 -1.64113e-21 0 0 0 0 
156 0.229002 0.191211 0.151766 0.111733 0.0623727 -1.79995e-21 0 0 0 0 
157 0.229166 0.191236 0.151767 0.111733 0.0623726 -2.03817e-21 0 0 0 0 
158 -0.208444 -0.134166 0.0130714 0.0841951 0.061669 -1.60142e-21 0 0 0 0 
159 0.228965 0.191212 0.151767 0.111733 0.0623727 -1.81318e-21 0 0 0 0 
160 0.188684 0.184835 0.15201 0.111962 0.0623889 -1.972e-21 0 0 0 0 
161 -0.113951 0.0151838 0.103818 0.107842 0.063015 -1.79995e-21 0 0 0 0 
162 0.230116 0.191846 0.151861 0.11173 0.0623712 -1.81318e-21 0 0 0 0 
163 -0.0980935 -0.136031 -0.239198 -0.294585 -0.129249 -1.95876e-21 0 0 0 0 
164 -0.185276 -0.233747 -0.134207 0.00859179 0.0503557 -2.02494e-21 0 0 0 0 
165 0.228968 0.191208 0.151766 0.111733 0.0623727 -1.91906e-21 0 0 0 0 
166 0.224634 0.191785 0.152102 0.111771 0.0623719 -1.81318e-21 0 0 0 0 
167 0.228967 0.191212 0.151767 0.111733 0.0623727 -1.68083e-21 0 0 0 0 
168 -0.132198 -0.14331 -0.197646 -0.307159 -0.299434 -1.81318e-21 0 0 0 0 
169 -0.043202 0.0856419 0.13106 0.111278 0.0626944 -1.82641e-21 0 0 0 0 
170 0.229453 0.191264 0.151761 0.111731 0.0623725 -1.62789e-21 0 0 0 0 
171 0.230164 0.191425 0.151767 0.111727 0.062372 -1.79995e-21 0 0 0 0 
172 0.116795 0.164858 0.150494 0.112466 0.0624722 -1.81318e-21 0 0 0 0 
173 0.228967 0.191208 0.151766 0.111733 0.0623727 -1.74701e-21 0 0 0 0 
174 -0.201784 -0.251848 -0.161883 0.0013946 0.0502149 -1.56172e-21 0 0 0 0 
175 -0.130166 -0.18645 -0.304972 -0.329097 -0.12088 -1.78671e-21 0 0 0 0 
176 0.228966 0.191212 0.151767 0.111733 0.0623727 -1.83965e-21 0 0 0 0 
177 0.22937 0.19301 0.152288 0.111795 0.0623741 -1.79995e-21 0 0 0 0 
178 0.229127 0.191218 0.151763 0.111732 0.0623726 -2.10435e-21 0 0 0 0 
179 -0.158356 -0.00469349 0.0962986 0.106375 0.0627175 -1.95876e-21 0 0 0 0 
180 0.22899 0.191206 0.151765 0.111733 0.0623727 -1.57495e-21 0 0 0 0 
181 0.228964 0.191211 0.151767 0.111733 0.0623727 -1.79995e-21 0 0 0 0 
182 -0.271945 -0.167165 -0.00406546 0.0816076 0.0614308 -1.64113e-21 0 0 0 0 
183 -0.17471 -0.281629 -0.296246 -0.128761 0.0218658 -2.02494e-21 0 0 0 0 
184 0.230482 0.191444 0.151761 0.111725 0.0623718 -1.91906e-21 0 0 0 0 
185 0.171085 0.185572 0.154005 0.112594 0.0624998 -1.57495e-21 0 0 0 0 
186 0.231677 0.19203 0.15187 0.111733 0.0623714 -1.6676e-21 0 0 0 0 
187 0.219077 0.193734 0.153221 0.112008 0.0623932 -1.82641e-21 0 0 0 0 
188 0.228976 0.19121 0.151766 0.111733 0.0623727 -2.07788e-21 0 0 0 0 
189 -0.187107 -0.200616 -0.24304 -0.345858 -0.368125 -1.73377e-21 0 0 0 0 
190 -0.295989 -0.258823 -0.0730332 0.0631435 0.0610694 -1.95876e-21 0 0 0 0 
191 0.228969 0.191213 0.151767 0.111733 0.0623727 -1.93229e-21 0 0 0 0 
192 0.228969 0.191212 0.151767 0.111733 0.0623727 -1.79995e-21 0 0 0 0 
193 0.229285 0.191253 0.151768 0.111732 0.0623726 -1.7073e-21 0 0 0 0 
194 -0.239598 -0.347601 -0.261104 -0.0410677 0.0461122 -1.7073e-21 0 0 0 0 
195 -0.0535018 0.092108 0.136491 0.112743 0.0628117 -1.81318e-21 0 0 0 0 
196 0.0987537 0.165316 0.153118 0.113511 0.0627933 -1.81318e-21 0 0 0 0 
197 0.229821 0.191362 0.151779 0.111732 0.0623724 -1.7073e-21 0 0 0 0 
198 0.228969 0.191213 0.151767 0.111733 0.0623727 -1.82641e-21 0 0 0 0 
199 0.218501 0.193524 0.153345 0.112089 0.0624039 -1.81318e-21 0 0 0 0 
200 -0.203476 -0.308419 -0.34819 -0.177761 0.00397269 -1.81318e-21 0 0 0 0 
201 0.22897 0.191213 0.151767 0.111733 0.0623727 -1.79995e-21 0 0 0 0 
202 0.231567 0.192252 0.15197 0.111755 0.0623738 -1.98523e-21 0 0 0 0 
203 -0.180273 -0.226136 -0.344757 -0.392653 -0.160455 -2.14405e-21 0 0 0 0 
204 0.228998 0.191212 0.151766 0.111733 0.0623726 -1.61466e-21 0 0 0 0 
205 -0.322831 -0.172842 0.0171432 0.0919266 0.0631465 -1.72054e-21 0 0 0 0 
206 -0.176467 0.0100986 0.113504 0.11249 0.0635847 -1.69407e-21 0 0 0 0 
207 0.229065 0.191211 0.151763 0.111732 0.0623726 -1.81318e-21 0 0 0 0 
208 0.172546 0.185882 0.154227 0.112715 0.0625266 -1.76024e-21 0 0 0 0 
209 0.229877 0.193384 0.152456 0.111837 0.062378 -1.81318e-21 0 0 0 0 
210 0.230715 0.191757 0.151864 0.11174 0.0623722 -1.89259e-21 0 0 0 0 
211 0.22897 0.191213 0.151767 0.111733 0.0623727 -1.6676e-21 0 0 0 0 
212 0.22897 0.191213 0.151767 0.111733 0.0623727 -1.81318e-21 0 0 0 0 
213 -0.245634 -0.381275 -0.361349 -0.131619 0.0198302 -1.95876e-21 0 0 0 0 
214 -0.220636 -0.233795 -0.283441 -0.393699 -0.420635 -1.78671e-21 0 0 0 0 
215 0.228969 0.19121 0.151766 0.111733 0.0623727 -1.95876e-21 0 0 0 0 
216 -0.325974 -0.317883 -0.152491 0.0166496 0.0533624 -1.85288e-21 0 0 0 0 
217 0.22897 0.191213 0.151767 0.111733 0.0623727 -2.02494e-21 0 0 0 0 
218 0.154848 0.178881 0.153339 0.112973 0.0625899 -1.99847e-21 0 0 0 0 
219 0.23017 0.191448 0.151743 0.111718 0.0623715 -1.76024e-21 0 0 0 0 
220 -0.200911 -0.284752 -0.424045 -0.362983 -0.147918 -1.6676e-21 0 0 0 0 
221 -0.143749 0.0336054 0.118518 0.11284 0.0635217 -1.78671e-21 0 0 0 0 
222 0.229011 0.191169 0.151753 0.111731 0.0623727 -1.83965e-21 0 0 0 0 
223 0.228037 0.193153 0.152368 0.111767 0.0623627 -1.81318e-21 0 0 0 0 
224 0.0267133 0.129829 0.145341 0.113648 0.063096 -1.58819e-21 0 0 0 0 
225 0.229339 0.19121 0.151742 0.111728 0.0623725 -1.69407e-21 0 0 0 0 
226 -0.341353 -0.297736 -0.138179 0.0177064 0.051611 -1.76024e-21 0 0 0 0 
227 0.228932 0.191199 0.151765 0.111733 0.0623727 -1.65436e-21 0 0 0 0 
228 0.211442 0.191943 0.153089 0.111914 0.0623527 -1.81318e-21 0 0 0 0 
229 0.230585 0.191965 0.151786 0.111698 0.0623687 -1.81318e-21 0 0 0 0 
230 -0.298471 -0.127926 0.0288234 0.0930735 0.0627959 -1.68083e-21 0 0 0 0 
231 0.228962 0.191212 0.151767 0.111733 0.0623727 -1.45584e-21 0 0 0 0 
232 0.228924 0.191183 0.151761 0.111733 0.0623727 -1.94553e-21 0 0 0 0 
233 -0.242693 -0.302641 -0.389004 -0.422135 -0.147342 -1.6676e-21 0 0 0 0 
234 -0.332296 -0.389571 -0.320472 -0.14526 0.0113147 -1.972e-21 0 0 0 0 
235 0.22895 0.191208 0.151766 0.111733 0.0623727 -1.94553e-21 0 0 0 0 
236 -0.265961 -0.288978 -0.346403 -0.440896 -0.46392 -1.73377e-21 0 0 0 0 
237 0.228967 0.191213 0.151767 0.111733 0.0623727 -1.99847e-21 0 0 0 0 
238 0.229313 0.191242 0.15176 0.111732 0.0623727 -1.81318e-21 0 0 0 0 
239 -0.00310354 0.121554 0.143097 0.112584 0.0626503 -2.26317e-21 0 0 0 0 
240 0.229804 0.191746 0.151832 0.111731 0.0623726 -1.89259e-21 0 0 0 0 
241 -0.373068 -0.15064 0.0427666 0.0982442 0.0628508 -1.87935e-21 0 0 0 0 
242 -0.33567 -0.443256 -0.354373 -0.096082 0.0314784 -1.81318e-21 0 0 0 0 
243 0.230032 0.191449 0.15178 0.111731 0.0623727 -1.76024e-21 0 0 0 0 
244 0.228969 0.191204 0.151765 0.111733 0.0623727 -1.60142e-21 0 0 0 0 
245 0.206728 0.191033 0.152801 0.111924 0.0623799 -1.74701e-21 0 0 0 0 
246 -0.177958 0.0237527 0.118602 0.111276 0.0629809 -1.73377e-21 0 0 0 0 
247 0.229065 0.191209 0.151764 0.111733 0.0623727 -2.07788e-21 0 0 0 0 
248 -0.434824 -0.339453 -0.113462 0.0459343 0.0573161 -1.93229e-21 0 0 0 0 
249 0.137615 0.174436 0.151655 0.112302 0.0624501 -1.54848e-21 0 0 0 0 
250 0.228963 0.191212 0.151767 0.111733 0.0623727 -1.87935e-21 0 0 0 0 
251 -0.263745 -0.29607 -0.447444 -0.530572 -0.225924 -2.30287e-21 0 0 0 0 
252 0.228969 0.191213 0.151767 0.111733 0.0623727 -1.81318e-21 0 0 0 0 
253 -0.282758 -0.421779 -0.492757 -0.287046 -0.0250408 -1.81318e-21 0 0 0 0 
254 0.22474 0.192284 0.152208 0.111786 0.062375 -1.82641e-21 0 0 0 0 
255 0.228964 0.19121 0.151767 0.111733 0.0623727 -1.74701e-21 0 0 0 0 
256 0.228968 0.191213 0.151767 0.111733 0.0623727 -2.18376e-21 0 0 0 0 
257 -0.0853331 0.0924018 0.13659 0.111721 0.0625308 -1.81318e-21 0 0 0 0 
258 0.228971 0.191213 0.151767 0.111733 0.0623727 -1.81318e-21 0 0 0 0 
259 0.230947 0.191671 0.151833 0.111738 0.0623727 -1.81318e-21 0 0 0 0 
260 -0.328785 -0.327854 -0.348815 -0.488126 -0.553871 -1.33672e-21 0 0 0 0 
261 0.0969639 0.162795 0.149809 0.112111 0.0624303 -1.81318e-21 0 0 0 0 
262 -0.432375 -0.424208 -0.193494 0.0173614 0.0541414 -1.58819e-21 0 0 0 0 
263 -0.342082 -0.526332 -0.469366 -0.152651 0.0244345 -1.53525e-21 0 0 0 0 
264 0.229299 0.191251 0.151768 0.111733 0.0623726 -2.02494e-21 0 0 0 0 
265 0.227131 0.19261 0.152224 0.111782 0.0623735 -1.79995e-21 0 0 0 0 
266 0.228974 0.191213 0.151767 0.111733 0.0623727 -1.72054e-21 0 0 0 0 
267 -0.229228 0.0100549 0.110608 0.108722 0.062585 -1.81318e-21 0 0 0 0 
268 0.229815 0.191347 0.151777 0.111733 0.0623726 -1.50878e-21 0 0 0 0 
269 0.228972 0.191213 0.151767 0.111733 0.0623727 -1.81318e-21 0 0 0 0 
270 0.231633 0.192334 0.152023 0.111763 0.0623735 -1.91906e-21 0 0 0 0 
271 -0.467036 -0.227721 -0.0083492 0.0817386 0.0608224 -1.79995e-21 0 0 0 0 
272 0.228999 0.191214 0.151767 0.111733 0.0623727 -1.93229e-21 0 0 0 0 
273 -0.316736 -0.323356 -0.491016 -0.593933 -0.262885 -2.02494e-21 0 0 0 0 
274 0.131285 0.17373 0.151948 0.112373 0.0624457 -2.22346e-21 0 0 0 0 
275 -0.296429 -0.435486 -0.55341 -0.341817 -0.0453535 -2.03817e-21 0 0 0 0 
276 0.228982 0.191213 0.151767 0.111733 0.0623727 -1.72054e-21 0 0 0 0 
277 0.229073 0.19122 0.151766 0.111733 0.0623727 -1.61466e-21 0 0 0 0 
278 0.199945 0.18955 0.15281 0.111989 0.0623888 -1.83965e-21 0 0 0 0 
279 -0.0265936 0.115492 0.141867 0.112549 0.0626311 -1.83965e-21 0 0 0 0 
280 0.22897 0.191213 0.151767 0.111733 0.0623727 -1.81318e-21 0 0 0 0 
281 0.229555 0.191298 0.151765 0.111731 0.0623725 -2.2764e-21 0 0 0 0 
282 -0.373018 -0.369846 -0.379132 -0.535406 -0.611358 -1.82641e-21 0 0 0 0 
283 0.229084 0.191693 0.151875 0.111741 0.0623726 -1.68083e-21 0 0 0 0 
284 -0.33911 -0.549919 -0.565991 -0.230916 0.00600402 -2.05141e-21 0 0 0 0 
285 -0.513859 -0.321784 -0.0536856 0.0704521 0.0601972 -1.73377e-21 0 0 0 0 
286 0.228969 0.191212 0.151767 0.111733 0.0623727 -1.82641e-21 0 0 0 0 
287 0.229934 0.191438 0.15178 0.11173 0.0623724 -1.57495e-21 0 0 0 0 
288 0.228969 0.191212 0.151767 0.111733 0.0623727 -1.81318e-21 0 0 0 0 
289 -0.538618 -0.534923 -0.271768 -0.0138489 0.0510459 -1.91906e-21 0 0 0 0 
290 0.229017 0.191211 0.151765 0.111733 0.0623727 -2.05141e-21 0 0 0 0 
291 0.186871 0.185453 0.152072 0.111934 0.0623892 -1.81318e-21 0 0 0 0 
292 0.229178 0.191229 0.151763 0.111732 0.0623726 -1.48231e-21 0 0 0 0 
293 -0.0674036 0.0971884 0.13758 0.111947 0.0625922 -1.87935e-21 0 0 0 0 
294 -0.386382 -0.356893 -0.463635 -0.677619 -0.354788 -1.50878e-21 0 0 0 0 
295 -0.338106 -0.419223 -0.621762 -0.462433 -0.100497 -1.7073e-21 0 0 0 0 
296 0.219077 0.190833 0.152031 0.111783 0.062375 -1.82641e-21 0 0 0 0 
297 -0.284565 -0.0400125 0.0951965 0.106779 0.0626369 -1.62789e-21 0 0 0 0 
298 0.228963 0.191211 0.151767 0.111733 0.0623727 -1.57495e-21 0 0 0 0 
299 0.228974 0.19121 0.151766 0.111733 0.0623727 -1.58819e-21 0 0 0 0 
300 0.229664 0.191314 0.151767 0.111731 0.0623725 -1.82641e-21 0 0 0 0 
301 0.228969 0.191213 0.151767 0.111733 0.0623727 -1.79995e-21 0 0 0 0 
302 0.229264 0.191247 0.151765 0.111732 0.0623726 -2.31611e-21 0 0 0 0 
303 0.094976 0.161612 0.149886 0.112237 0.0624445 -1.65436e-21 0 0 0 0 
304 -0.400953 -0.439145 -0.423646 -0.510214 -0.74797 -2.03817e-21 0 0 0 0 
305 -0.375747 -0.467139 -0.644874 -0.451466 -0.0724573 -1.83965e-21 0 0 0 0 
306 -0.546334 -0.524417 -0.232708 0.0124794 0.0557574 -1.79995e-21 0 0 0 0 
307 0.222073 0.191608 0.15211 0.111769 0.0623715 -1.79995e-21 0 0 0 0 
308 0.228968 0.191213 0.151767 0.111733 0.0623727 -2.02494e-21 0 0 0 0 
309 0.228969 0.191213 0.151767 0.111733 0.0623727 -2.09111e-21 0 0 0 0 
310 -0.413926 -0.419275 -0.517852 -0.673059 -0.348616 -1.99847e-21 0 0 0 0 
311 -0.471223 -0.621398 -0.486969 -0.151648 0.0282832 -1.69407e-21 0 0 0 0 
312 0.228989 0.191214 0.151767 0.111733 0.0623727 -1.78671e-21 0 0 0 0 
313 0.23029 0.191452 0.151767 0.111728 0.0623723 -1.81318e-21 0 0 0 0 
314 -0.311392 -0.0473735 0.0929727 0.107383 0.0629052 -2.06464e-21 0 0 0 0 
315 0.229238 0.191248 0.151767 0.111732 0.0623726 -1.72054e-21 0 0 0 0 
316 0.230421 0.19193 0.15186 0.11173 0.0623715 -2.11758e-21 0 0 0 0 
317 0.116642 0.167123 0.150155 0.112082 0.0624206 -2.19699e-21 0 0 0 0 
318 -0.532487 -0.255951 -0.00022677 0.0917739 0.0629787 -1.45584e-21 0 0 0 0 
319 0.228975 0.191213 0.151767 0.111733 0.0623727 -1.98523e-21 0 0 0 0 
320 0.229051 0.191219 0.151767 0.111733 0.0623726 -1.74701e-21 0 0 0 0 
321 0.196604 0.188566 0.152499 0.111902 0.0623763 -1.41613e-21 0 0 0 0 
322 0.228969 0.191213 0.151767 0.111733 0.0623727 -1.58819e-21 0 0 0 0 
323 0.229762 0.191341 0.15177 0.111731 0.0623724 -2.0117e-21 0 0 0 0 
324 -0.0464449 0.101372 0.136963 0.111663 0.0625874 -1.49554e-21 0 0 0 0 
325 -0.416092 -0.43445 -0.504235 -0.639973 -0.601038 -1.62789e-21 0 0 0 0 
326 -0.480461 -0.605978 -0.525329 -0.189971 0.00461499 -2.02494e-21 0 0 0 0 
327 0.228976 0.191211 0.151767 0.111733 0.0623727 -1.25731e-21 0 0 0 0 
328 0.228969 0.191212 0.151767 0.111733 0.0623727 -1.82641e-21 0 0 0 0 
329 -0.562131 -0.26805 0.002551 0.0880705 0.0622477 -1.972e-21 0 0 0 0 
330 -0.418056 -0.525464 -0.693588 -0.541107 -0.201834 -1.60142e-21 0 0 0 0 
331 0.22909 0.191214 0.151764 0.111732 0.0623727 -1.91906e-21 0 0 0 0 
332 0.202608 0.192147 0.153416 0.112027 0.062384 -2.17052e-21 0 0 0 0 
333 -0.616081 -0.533172 -0.232884 -0.00404871 0.0494245 -1.81318e-21 0 0 0 0 
334 0.229006 0.19121 0.151766 0.111733 0.0623727 -2.10435e-21 0 0 0 0 
335 -0.057744 0.110557 0.142543 0.112934 0.0627354 -2.07788e-21 0 0 0 0 
336 0.232573 0.192691 0.151977 0.111733 0.0623706 -1.53525e-21 0 0 0 0 
337 0.230018 0.191376 0.15177 0.11173 0.0623724 -1.48231e-21 0 0 0 0 
338 -0.308551 -0.0234917 0.109145 0.111053 0.063326 -1.7073e-21 0 0 0 0 
339 0.228969 0.191213 0.151767 0.111733 0.0623727 -1.77348e-21 0 0 0 0 
340 0.227852 0.193856 0.152524 0.111799 0.062371 -2.13082e-21 0 0 0 0 
341 0.229366 0.191246 0.151763 0.111732 0.0623726 -1.72054e-21 0 0 0 0 
342 0.120634 0.174922 0.153247 0.112691 0.0624754 -1.56172e-21 0 0 0 0 
343 -0.454026 -0.514184 -0.587895 -0.665488 -0.256101 -2.32934e-21 0 0 0 0 
344 0.22898 0.191211 0.151766 0.111733 0.0623727 -1.83965e-21 0 0 0 0 
345 0.231553 0.191782 0.151806 0.111727 0.0623718 -1.81318e-21 0 0 0 0 
346 -0.555163 -0.590441 -0.337043 -0.0325033 0.0521237 -1.53525e-21 0 0 0 0 
347 0.228969 0.191213 0.151767 0.111733 0.0623727 -1.60142e-21 0 0 0 0 
348 0.228968 0.191213 0.151767 0.111733 0.0623727 -1.972e-21 0 0 0 0 
349 -0.459252 -0.487856 -0.581387 -0.643007 -0.702358 -1.79995e-21 0 0 0 0 
350 -0.49613 -0.643136 -0.612773 -0.289339 -0.00569232 -1.83965e-21 0 0 0 0 
351 0.228967 0.191212 0.151767 0.111733 0.0623727 -2.11758e-21 0 0 0 0 
352 0.0851643 0.161749 0.152853 0.113477 0.0625929 -1.78671e-21 0 0 0 0 
353 -0.354745 -0.0613594 0.0974707 0.112901 0.0639784 -1.89259e-21 0 0 0 0 
354 0.229128 0.19122 0.151764 0.111732 0.0623726 -2.03817e-21 0 0 0 0 
355 0.228995 0.19121 0.151766 0.111733 0.0623727 -1.972e-21 0 0 0 0 
356 0.228969 0.191213 0.151767 0.111733 0.0623727 -1.82641e-21 0 0 0 0 
357 0.218903 0.192392 0.152672 0.111883 0.0623796 -1.42937e-21 0 0 0 0 
358 -0.590102 -0.341623 -0.0621668 0.0794783 0.0635337 -2.02494e-21 0 0 0 0 
359 0.23012 0.191431 0.151779 0.111731 0.0623724 -1.61466e-21 0 0 0 0 
360 -0.480049 -0.484883 -0.608563 -0.805827 -0.373405 -1.81318e-21 0 0 0 0 
361 -0.481553 -0.588026 -0.676243 -0.447256 -0.0748818 -1.81318e-21 0 0 0 0 
362 0.179398 0.186356 0.153371 0.112271 0.0624164 -1.78671e-21 0 0 0 0 
363 -0.0994849 0.0870529 0.141773 0.115285 0.0631128 -1.41613e-21 0 0 0 0 
364 0.229246 0.191235 0.151764 0.111732 0.0623726 -1.60142e-21 0 0 0 0 
365 0.228958 0.191211 0.151767 0.111733 0.0623727 -1.74701e-21 0 0 0 0 
366 0.228967 0.191213 0.151767 0.111733 0.0623727 -1.81318e-21 0 0 0 0 
367 0.228959 0.191208 0.151766 0.111733 0.0623727 -1.50878e-21 0 0 0 0 
368 -0.67979 -0.448628 -0.139451 0.0524307 0.0608006 -1.46907e-21 0 0 0 0 
369 -0.517393 -0.524741 -0.514216 -0.674912 -0.834637 -1.79995e-21 0 0 0 0 
370 0.23041 0.192433 0.152009 0.111746 0.0623719 -1.79995e-21 0 0 0 0 
371 -0.484172 -0.70741 -0.704066 -0.303057 -0.00789989 -2.07788e-21 0 0 0 0 
372 0.230636 0.19171 0.151823 0.111732 0.0623722 -1.82641e-21 0 0 0 0 
373 0.228963 0.191212 0.151767 0.111733 0.0623727 -1.81318e-21 0 0 0 0 
374 -0.747226 -0.685598 -0.380989 -0.0446311 0.050858 -1.76024e-21 0 0 0 0 
375 0.0101628 0.140667 0.148598 0.11282 0.0625321 -1.99847e-21 0 0 0 0 
376 0.164623 0.183523 0.152296 0.111904 0.0623711 -2.03817e-21 0 0 0 0 
377 0.229048 0.191195 0.151762 0.111732 0.0623727 -2.10435e-21 0 0 0 0 
378 -0.678605 -0.356059 -0.0209035 0.0869843 0.0625632 -1.89259e-21 0 0 0 0 
379 0.228963 0.191201 0.151765 0.111733 0.0623727 -2.0117e-21 0 0 0 0 
380 -0.514787 -0.46194 -0.651124 -0.88097 -0.437947 -1.79995e-21 0 0 0 0 
381 -0.457433 -0.579712 -0.791143 -0.587408 -0.127466 -1.81318e-21 0 0 0 0 
382 0.228965 0.191212 0.151767 0.111733 0.0623727 -1.81318e-21 0 0 0 0 
383 -0.767958 -0.686171 -0.229026 0.0295532 0.0577812 -1.82641e-21 0 0 0 0 
384 -0.159605 0.0749142 0.135893 0.111879 0.0624708 -1.81318e-21 0 0 0 0 
385 -0.482399 -0.108844 0.087024 0.107705 0.0625523 -2.09111e-21 0 0 0 0 
386 0.230144 0.19139 0.151761 0.111728 0.0623723 -2.05141e-21 0 0 0 0 
387 0.230493 0.192686 0.151957 0.111716 0.0623688 -1.83965e-21 0 0 0 0 
388 0.228968 0.191213 0.151767 0.111733 0.0623727 -1.81318e-21 0 0 0 0 
389 0.210898 0.191395 0.152328 0.111768 0.0623671 -1.85288e-21 0 0 0 0 
390 0.228961 0.191211 0.151767 0.111733 0.0623727 -1.81318e-21 0 0 0 0 
391 -0.569698 -0.563107 -0.516715 -0.703684 -0.891154 -2.03817e-21 0 0 0 0 
392 0.229337 0.191215 0.151756 0.111731 0.0623726 -1.54848e-21 0 0 0 0 
393 0.228961 0.191208 0.151766 0.111733 0.0623727 -1.77348e-21 0 0 0 0 
394 -0.644116 -0.743375 -0.414962 -0.048102 0.0482564 -1.81318e-21 0 0 0 0 
395 -0.515209 -0.771785 -0.747922 -0.306701 -0.00965132 -1.87935e-21 0 0 0 0 
396 0.231499 0.191898 0.151797 0.111719 0.062371 -2.14405e-21 0 0 0 0 
397 0.0490754 0.153578 0.14952 0.112301 0.0624423 -1.99847e-21 0 0 0 0 
398 -0.561659 -0.51375 -0.650886 -0.916385 -0.478532 -1.77348e-21 0 0 0 0 
399 0.228967 0.191213 0.151767 0.111733 0.0623727 -1.81318e-21 0 0 0 0 
400 0.228964 0.191212 0.151767 0.111733 0.0623727 -1.78671e-21 0 0 0 0 
401 0.177312 0.186468 0.15268 0.111984 0.062386 -1.60142e-21 0 0 0 0 
402 -0.508732 -0.616468 -0.79848 -0.565176 -0.130712 -1.83965e-21 0 0 0 0 
403 -0.594011 -0.227011 0.0356577 0.100418 0.0631854 -1.76024e-21 0 0 0 0 
404 0.228979 0.191209 0.151766 0.111733 0.0623727 -1.61466e-21 0 0 0 0 
405 -0.794468 -0.539721 -0.145924 0.0599686 0.0617303 -1.82641e-21 0 0 0 0 
406 0.229076 0.191207 0.151763 0.111732 0.0623727 -1.95876e-21 0 0 0 0 
407 -0.585392 -0.607156 -0.559682 -0.707728 -0.960753 -1.79995e-21 0 0 0 0 
408 -0.0493107 0.11388 0.142421 0.112309 0.0625521 -1.76024e-21 0 0 0 0 
409 0.228969 0.191213 0.151767 0.111733 0.0623727 -1.81318e-21 0 0 0 0 
410 -0.328958 -0.0212226 0.109816 0.110402 0.0629208 -1.89259e-21 0 0 0 0 