VARIABLES = "Cell" "Mode 0" "Mode 1" "Mode 2" "Mode 3" "Mode 4" "Mode 5" "Mode 6" "Mode 7" "Mode 8" "Mode 9" 
ZONE T = Iteration189
0 -0.850761 -0.850743 -0.850723 -0.850702 -0.850678 -0.850654 -0.850627 -0.850599 -0.850569 -0.850538 
1 -0.850761 -0.850743 -0.850723 -0.850702 -0.850678 -0.850654 -0.850627 -0.850599 -0.850569 -0.850538 
2 -0.850761 -0.850743 -0.850723 -0.850702 -0.850678 -0.850654 -0.850627 -0.850599 -0.850569 -0.850538 
3 -0.850761 -0.850743 -0.850723 -0.850702 -0.850678 -0.850654 -0.850627 -0.850599 -0.850569 -0.850538 
4 -0.850761 -0.850743 -0.850723 -0.850702 -0.850678 -0.850654 -0.850627 -0.850599 -0.850569 -0.850538 
5 -0.850761 -0.850743 -0.850723 -0.850702 -0.850678 -0.850654 -0.850627 -0.850599 -0.850569 -0.850538 
6 -0.850761 -0.850743 -0.850723 -0.850702 -0.850678 -0.850654 -0.850627 -0.850599 -0.850569 -0.850538 
7 -0.850761 -0.850743 -0.850723 -0.850702 -0.850678 -0.850654 -0.850627 -0.850599 -0.850569 -0.850538 
8 -0.850761 -0.850743 -0.850723 -0.850702 -0.850678 -0.850654 -0.850627 -0.850599 -0.850569 -0.850538 
9 -0.850761 -0.850743 -0.850723 -0.850702 -0.850678 -0.850654 -0.850627 -0.850599 -0.850569 -0.850538 
10 -0.850761 -0.850743 -0.850723 -0.850702 -0.850678 -0.850654 -0.850627 -0.850599 -0.850569 -0.850538 
11 -0.850761 -0.850743 -0.850723 -0.850702 -0.850678 -0.850654 -0.850627 -0.850599 -0.850569 -0.850538 
12 -0.850761 -0.850743 -0.850723 -0.850702 -0.850678 -0.850654 -0.850627 -0.850599 -0.850569 -0.850538 
13 -0.850761 -0.850743 -0.850723 -0.850702 -0.850678 -0.850654 -0.850627 -0.850599 -0.850569 -0.850538 
14 -0.850761 -0.850743 -0.850723 -0.850702 -0.850678 -0.850654 -0.850627 -0.850599 -0.850569 -0.850538 
15 -0.850761 -0.850743 -0.850723 -0.850702 -0.850678 -0.850654 -0.850627 -0.850599 -0.850569 -0.850538 
16 -0.850761 -0.850743 -0.850723 -0.850702 -0.850678 -0.850654 -0.850627 -0.850599 -0.850569 -0.850538 
17 -0.850761 -0.850743 -0.850723 -0.850702 -0.850678 -0.850654 -0.850627 -0.850599 -0.850569 -0.850538 
18 -0.850761 -0.850743 -0.850723 -0.850702 -0.850678 -0.850654 -0.850627 -0.850599 -0.850569 -0.850538 
19 -0.850761 -0.850743 -0.850723 -0.850702 -0.850678 -0.850654 -0.850627 -0.850599 -0.850569 -0.850538 
20 -0.850761 -0.850743 -0.850723 -0.850702 -0.850678 -0.850654 -0.850627 -0.850599 -0.850569 -0.850538 
21 -0.850761 -0.850743 -0.850723 -0.850702 -0.850678 -0.850654 -0.850627 -0.850599 -0.850569 -0.850538 
22 -0.850761 -0.850743 -0.850723 -0.850702 -0.850678 -0.850654 -0.850627 -0.850599 -0.850569 -0.850538 
23 -0.850761 -0.850743 -0.850723 -0.850702 -0.850678 -0.850654 -0.850627 -0.850599 -0.850569 -0.850538 
24 -0.850761 -0.850743 -0.850723 -0.850702 -0.850678 -0.850654 -0.850627 -0.850599 -0.850569 -0.850538 
25 -0.850761 -0.850743 -0.850723 -0.850702 -0.850678 -0.850654 -0.850627 -0.850599 -0.850569 -0.850538 
26 -0.850761 -0.850743 -0.850723 -0.850702 -0.850678 -0.850654 -0.850627 -0.850599 -0.850569 -0.850538 
27 -0.850761 -0.850743 -0.850723 -0.850702 -0.850678 -0.850654 -0.850627 -0.850599 -0.850569 -0.850538 
28 -0.850761 -0.850743 -0.850723 -0.850702 -0.850678 -0.850654 -0.850627 -0.850599 -0.850569 -0.850538 
29 -0.850761 -0.850743 -0.850723 -0.850702 -0.850678 -0.850654 -0.850627 -0.850599 -0.850569 -0.850538 
30 -0.850761 -0.850743 -0.850723 -0.850702 -0.850678 -0.850654 -0.850627 -0.850599 -0.850569 -0.850538 
31 -0.850761 -0.850743 -0.850723 -0.850702 -0.850678 -0.850654 -0.850627 -0.850599 -0.850569 -0.850538 
32 -0.850761 -0.850743 -0.850723 -0.850702 -0.850678 -0.850654 -0.850627 -0.850599 -0.850569 -0.850538 
33 -0.850761 -0.850743 -0.850723 -0.850702 -0.850678 -0.850654 -0.850627 -0.850599 -0.850569 -0.850538 
34 -0.850761 -0.850743 -0.850723 -0.850702 -0.850678 -0.850654 -0.850627 -0.850599 -0.850569 -0.850538 
35 -0.850761 -0.850743 -0.850723 -0.850702 -0.850678 -0.850654 -0.850627 -0.850599 -0.850569 -0.850538 
36 -0.850761 -0.850743 -0.850723 -0.850702 -0.850678 -0.850654 -0.850627 -0.850599 -0.850569 -0.850538 
37 -0.850761 -0.850743 -0.850723 -0.850702 -0.850678 -0.850654 -0.850627 -0.850599 -0.850569 -0.850538 
38 -0.850761 -0.850743 -0.850723 -0.850702 -0.850678 -0.850654 -0.850627 -0.850599 -0.850569 -0.850538 
39 -0.850761 -0.850743 -0.850723 -0.850702 -0.850678 -0.850654 -0.850627 -0.850599 -0.850569 -0.850538 
40 -0.850761 -0.850743 -0.850723 -0.850702 -0.850678 -0.850654 -0.850627 -0.850599 -0.850569 -0.850538 
41 -0.850761 -0.850743 -0.850723 -0.850702 -0.850678 -0.850654 -0.850627 -0.850599 -0.850569 -0.850538 
42 -0.850761 -0.850743 -0.850723 -0.850702 -0.850678 -0.850654 -0.850627 -0.850599 -0.850569 -0.850538 
43 -0.850761 -0.850743 -0.850723 -0.850702 -0.850678 -0.850654 -0.850627 -0.850599 -0.850569 -0.850538 
44 -0.850761 -0.850743 -0.850723 -0.850702 -0.850678 -0.850654 -0.850627 -0.850599 -0.850569 -0.850538 
45 -0.850761 -0.850743 -0.850723 -0.850702 -0.850678 -0.850654 -0.850627 -0.850599 -0.850569 -0.850538 
46 -0.850761 -0.850743 -0.850723 -0.850702 -0.850678 -0.850654 -0.850627 -0.850599 -0.850569 -0.850538 
47 -0.850761 -0.850743 -0.850723 -0.850702 -0.850678 -0.850654 -0.850627 -0.850599 -0.850569 -0.850538 
48 -0.850761 -0.850743 -0.850723 -0.850702 -0.850678 -0.850654 -0.850627 -0.850599 -0.850569 -0.850538 
49 -0.850761 -0.850743 -0.850723 -0.850702 -0.850678 -0.850654 -0.850627 -0.850599 -0.850569 -0.850538 
50 -0.850761 -0.850743 -0.850723 -0.850702 -0.850678 -0.850654 -0.850627 -0.850599 -0.850569 -0.850538 
51 -0.850761 -0.850743 -0.850723 -0.850702 -0.850678 -0.850654 -0.850627 -0.850599 -0.850569 -0.850538 
52 -0.850761 -0.850743 -0.850723 -0.850702 -0.850678 -0.850654 -0.850627 -0.850599 -0.850569 -0.850538 
53 -0.850761 -0.850743 -0.850723 -0.850702 -0.850678 -0.850654 -0.850627 -0.850599 -0.850569 -0.850538 
54 -0.850761 -0.850743 -0.850723 -0.850702 -0.850678 -0.850654 -0.850627 -0.850599 -0.850569 -0.850538 
55 -0.850761 -0.850743 -0.850723 -0.850702 -0.850678 -0.850654 -0.850627 -0.850599 -0.850569 -0.850538 
56 -0.850761 -0.850743 -0.850723 -0.850702 -0.850678 -0.850654 -0.850627 -0.850599 -0.850569 -0.850538 
57 -0.850761 -0.850743 -0.850723 -0.850702 -0.850678 -0.850654 -0.850627 -0.850599 -0.850569 -0.850538 
58 -0.850761 -0.850743 -0.850723 -0.850702 -0.850678 -0.850654 -0.850627 -0.850599 -0.850569 -0.850538 
59 -0.850761 -0.850743 -0.850723 -0.850702 -0.850678 -0.850654 -0.850627 -0.850599 -0.850569 -0.850538 
60 -0.850761 -0.850743 -0.850723 -0.850702 -0.850678 -0.850654 -0.850627 -0.850599 -0.850569 -0.850538 
61 -0.850761 -0.850743 -0.850723 -0.850702 -0.850678 -0.850654 -0.850627 -0.850599 -0.850569 -0.850538 
62 -0.850761 -0.850743 -0.850723 -0.850702 -0.850678 -0.850654 -0.850627 -0.850599 -0.850569 -0.850538 
63 -0.850761 -0.850743 -0.850723 -0.850702 -0.850678 -0.850654 -0.850627 -0.850599 -0.850569 -0.850538 
64 -0.850761 -0.850743 -0.850723 -0.850702 -0.850678 -0.850654 -0.850627 -0.850599 -0.850569 -0.850538 
65 -0.850761 -0.850743 -0.850723 -0.850702 -0.850678 -0.850654 -0.850627 -0.850599 -0.850569 -0.850538 
66 -0.850761 -0.850743 -0.850723 -0.850702 -0.850678 -0.850654 -0.850627 -0.850599 -0.850569 -0.850538 
67 -0.850761 -0.850743 -0.850723 -0.850702 -0.850678 -0.850654 -0.850627 -0.850599 -0.850569 -0.850538 
68 -0.850761 -0.850743 -0.850723 -0.850702 -0.850678 -0.850654 -0.850627 -0.850599 -0.850569 -0.850538 
69 -0.850761 -0.850743 -0.850723 -0.850702 -0.850678 -0.850654 -0.850627 -0.850599 -0.850569 -0.850538 
70 -0.850761 -0.850743 -0.850723 -0.850702 -0.850678 -0.850654 -0.850627 -0.850599 -0.850569 -0.850538 
71 -0.850761 -0.850743 -0.850723 -0.850702 -0.850678 -0.850654 -0.850627 -0.850599 -0.850569 -0.850538 
72 -0.850761 -0.850743 -0.850723 -0.850702 -0.850678 -0.850654 -0.850627 -0.850599 -0.850569 -0.850538 
73 -0.850761 -0.850743 -0.850723 -0.850702 -0.850678 -0.850654 -0.850627 -0.850599 -0.850569 -0.850538 
74 -0.850761 -0.850743 -0.850723 -0.850702 -0.850678 -0.850654 -0.850627 -0.850599 -0.850569 -0.850538 
75 -0.850761 -0.850743 -0.850723 -0.850702 -0.850678 -0.850654 -0.850627 -0.850599 -0.850569 -0.850538 
76 -0.850761 -0.850743 -0.850723 -0.850702 -0.850678 -0.850654 -0.850627 -0.850599 -0.850569 -0.850538 
77 -0.850761 -0.850743 -0.850723 -0.850702 -0.850678 -0.850654 -0.850627 -0.850599 -0.850569 -0.850538 
78 -0.850761 -0.850743 -0.850723 -0.850702 -0.850678 -0.850654 -0.850627 -0.850599 -0.850569 -0.850538 
79 -0.850761 -0.850743 -0.850723 -0.850702 -0.850679 -0.850654 -0.850627 -0.850599 -0.850569 -0.850538 
80 -0.850761 -0.850743 -0.850723 -0.850702 -0.850678 -0.850654 -0.850627 -0.850599 -0.850569 -0.850538 
81 -0.850761 -0.850743 -0.850723 -0.850702 -0.850679 -0.850654 -0.850627 -0.850599 -0.850569 -0.850538 
82 -0.850761 -0.850743 -0.850723 -0.850702 -0.850679 -0.850654 -0.850627 -0.850599 -0.850569 -0.850538 
83 -0.850761 -0.850743 -0.850723 -0.850702 -0.850679 -0.850654 -0.850627 -0.850599 -0.850569 -0.850538 
84 -0.850761 -0.850743 -0.850723 -0.850702 -0.850679 -0.850654 -0.850627 -0.850599 -0.850569 -0.850538 
85 -0.850761 -0.850743 -0.850723 -0.850702 -0.850679 -0.850654 -0.850627 -0.850599 -0.850569 -0.850538 
86 -0.850761 -0.850743 -0.850723 -0.850702 -0.850678 -0.850654 -0.850627 -0.850599 -0.850569 -0.850538 
87 -0.850761 -0.850743 -0.850723 -0.850702 -0.850678 -0.850654 -0.850627 -0.850599 -0.850569 -0.850538 
88 -0.850761 -0.850743 -0.850723 -0.850702 -0.850678 -0.850654 -0.850627 -0.850599 -0.850569 -0.850538 
89 -0.850757 -0.85074 -0.85072 -0.850699 -0.850676 -0.850651 -0.850625 -0.850597 -0.850567 -0.850537 
90 -0.850761 -0.850743 -0.850723 -0.850702 -0.850678 -0.850654 -0.850627 -0.850599 -0.850569 -0.850538 
91 -0.850764 -0.850746 -0.850727 -0.850705 -0.850682 -0.850657 -0.85063 -0.850602 -0.850572 -0.850541 
92 -0.850761 -0.850743 -0.850723 -0.850702 -0.850679 -0.850654 -0.850627 -0.850599 -0.85057 -0.850539 
93 -0.85076 -0.850742 -0.850723 -0.850702 -0.850678 -0.850654 -0.850627 -0.850599 -0.85057 -0.850539 
94 -0.850761 -0.850743 -0.850723 -0.850702 -0.850678 -0.850654 -0.850627 -0.850599 -0.850569 -0.850538 
95 -0.850767 -0.850749 -0.85073 -0.850708 -0.850685 -0.85066 -0.850634 -0.850606 -0.850576 -0.850545 
96 -0.850763 -0.850745 -0.850725 -0.850703 -0.85068 -0.850655 -0.850628 -0.8506 -0.85057 -0.850539 
97 -0.850761 -0.850743 -0.850724 -0.850703 -0.850679 -0.850655 -0.850628 -0.8506 -0.850571 -0.85054 
98 -0.850761 -0.850743 -0.850723 -0.850702 -0.850678 -0.850654 -0.850627 -0.850599 -0.850569 -0.850538 
99 -0.850726 -0.850708 -0.850688 -0.850667 -0.850643 -0.850618 -0.850592 -0.850564 -0.850535 -0.850504 
100 -0.850758 -0.850741 -0.850723 -0.850703 -0.850681 -0.850658 -0.850632 -0.850605 -0.850577 -0.850547 
101 -0.850758 -0.85074 -0.85072 -0.850699 -0.850676 -0.850651 -0.850624 -0.850596 -0.850566 -0.850535 
102 -0.850734 -0.850716 -0.850697 -0.850676 -0.850653 -0.850629 -0.850603 -0.850575 -0.850546 -0.850516 
103 -0.850761 -0.850743 -0.850724 -0.850702 -0.850679 -0.850654 -0.850627 -0.850599 -0.85057 -0.850539 
104 -0.850697 -0.850682 -0.850664 -0.850646 -0.850625 -0.850602 -0.850578 -0.850553 -0.850526 -0.850497 
105 -0.850825 -0.850806 -0.850784 -0.850761 -0.850736 -0.850709 -0.85068 -0.85065 -0.850619 -0.850586 
106 -0.85076 -0.850742 -0.850723 -0.850701 -0.850678 -0.850653 -0.850627 -0.850599 -0.850569 -0.850538 
107 -0.850761 -0.850743 -0.850723 -0.850702 -0.850678 -0.850654 -0.850627 -0.850599 -0.850569 -0.850538 
108 -0.850744 -0.850726 -0.850707 -0.850686 -0.850663 -0.850638 -0.850612 -0.850584 -0.850555 -0.850524 
109 -0.850765 -0.850746 -0.850725 -0.850703 -0.850678 -0.850652 -0.850625 -0.850596 -0.850565 -0.850534 
110 -0.851047 -0.851014 -0.850979 -0.850943 -0.850905 -0.850865 -0.850824 -0.850782 -0.850738 -0.850693 
111 -0.850597 -0.850578 -0.850557 -0.850535 -0.850512 -0.850488 -0.850462 -0.850434 -0.850406 -0.850377 
112 -0.85076 -0.850742 -0.850723 -0.850701 -0.850678 -0.850653 -0.850627 -0.850599 -0.85057 -0.850539 
113 -0.850761 -0.850743 -0.850723 -0.850702 -0.850678 -0.850654 -0.850627 -0.850599 -0.850569 -0.850538 
114 -0.850856 -0.850834 -0.85081 -0.850785 -0.850757 -0.850728 -0.850698 -0.850666 -0.850632 -0.850597 
115 -0.850638 -0.850639 -0.850637 -0.850632 -0.850625 -0.850616 -0.850604 -0.850591 -0.850575 -0.850557 
116 -0.850721 -0.850702 -0.850682 -0.85066 -0.850637 -0.850612 -0.850585 -0.850557 -0.850528 -0.850497 
117 -0.850649 -0.85061 -0.850571 -0.85053 -0.850489 -0.850447 -0.850404 -0.85036 -0.850316 -0.850271 
118 -0.851442 -0.851421 -0.851397 -0.85137 -0.85134 -0.851309 -0.851274 -0.851238 -0.851199 -0.851159 
119 -0.851294 -0.851269 -0.851241 -0.851211 -0.851178 -0.851144 -0.851107 -0.851069 -0.851028 -0.850986 
120 -0.851882 -0.851819 -0.851753 -0.851685 -0.851615 -0.851543 -0.851468 -0.851392 -0.851315 -0.851236 
121 -0.84935 -0.849381 -0.849411 -0.84944 -0.849469 -0.849497 -0.849524 -0.84955 -0.849575 -0.8496 
122 -0.85199 -0.85197 -0.851946 -0.851919 -0.851888 -0.851855 -0.851818 -0.851778 -0.851735 -0.85169 
123 -0.851115 -0.851089 -0.851062 -0.851033 -0.851002 -0.85097 -0.850936 -0.850901 -0.850864 -0.850826 
124 -0.850698 -0.850662 -0.850625 -0.850587 -0.850548 -0.850508 -0.850467 -0.850425 -0.850383 -0.85034 
125 -0.851081 -0.851113 -0.851145 -0.851174 -0.851203 -0.85123 -0.851255 -0.851279 -0.851302 -0.851323 
126 -0.850761 -0.850743 -0.850723 -0.850702 -0.850678 -0.850654 -0.850627 -0.850599 -0.850569 -0.850538 
127 -0.84951 -0.849495 -0.849477 -0.849456 -0.849433 -0.849407 -0.84938 -0.84935 -0.849318 -0.849284 
128 -0.850804 -0.850755 -0.850706 -0.850655 -0.850604 -0.850553 -0.8505 -0.850447 -0.850394 -0.85034 
129 -0.854095 -0.853977 -0.853856 -0.853733 -0.853607 -0.85348 -0.85335 -0.853219 -0.853087 -0.852952 
130 -0.854054 -0.854025 -0.853994 -0.853961 -0.853927 -0.853891 -0.853853 -0.853814 -0.853774 -0.853732 
131 -0.848808 -0.848861 -0.848914 -0.848965 -0.849015 -0.849063 -0.84911 -0.849156 -0.8492 -0.849243 
132 -0.84665 -0.846709 -0.846767 -0.846825 -0.846883 -0.84694 -0.846998 -0.847055 -0.847113 -0.847171 
133 -0.852497 -0.852474 -0.852447 -0.852416 -0.852381 -0.852342 -0.852299 -0.852251 -0.8522 -0.852145 
134 -0.84912 -0.849147 -0.849172 -0.849195 -0.849215 -0.849234 -0.849251 -0.849266 -0.849279 -0.84929 
135 -0.847264 -0.847253 -0.847239 -0.847222 -0.847203 -0.847181 -0.847157 -0.847132 -0.847104 -0.847074 
136 -0.850761 -0.850743 -0.850723 -0.850702 -0.850679 -0.850654 -0.850627 -0.850599 -0.850569 -0.850538 
137 -0.85079 -0.85077 -0.850748 -0.850724 -0.850698 -0.850671 -0.850642 -0.850612 -0.85058 -0.850547 
138 -0.850678 -0.850649 -0.85062 -0.85059 -0.850561 -0.850531 -0.850502 -0.850473 -0.850445 -0.850418 
139 -0.848032 -0.848061 -0.848087 -0.848109 -0.848128 -0.848143 -0.848154 -0.848162 -0.848165 -0.848165 
140 -0.85125 -0.851235 -0.851217 -0.851196 -0.851172 -0.851146 -0.851118 -0.851087 -0.851054 -0.851019 
141 -0.856795 -0.856706 -0.856615 -0.856523 -0.85643 -0.856336 -0.856241 -0.856145 -0.856049 -0.855952 
142 -0.842575 -0.84256 -0.842541 -0.842521 -0.842499 -0.842475 -0.842449 -0.842422 -0.842393 -0.842364 
143 -0.856249 -0.856248 -0.856244 -0.856237 -0.856227 -0.856215 -0.8562 -0.856182 -0.856162 -0.856139 
144 -0.849682 -0.84972 -0.849757 -0.849793 -0.849828 -0.849861 -0.849894 -0.849925 -0.849954 -0.849982 
145 -0.843793 -0.843759 -0.843724 -0.84369 -0.843656 -0.843622 -0.843589 -0.843557 -0.843526 -0.843496 
146 -0.852068 -0.852119 -0.852172 -0.852226 -0.85228 -0.852336 -0.852393 -0.85245 -0.852509 -0.852569 
147 -0.858131 -0.858028 -0.85792 -0.857806 -0.857687 -0.857563 -0.857434 -0.8573 -0.857162 -0.857019 
148 -0.843617 -0.843707 -0.843799 -0.843893 -0.843989 -0.844087 -0.844186 -0.844287 -0.844389 -0.844494 
149 -0.855693 -0.855634 -0.855575 -0.855515 -0.855455 -0.855394 -0.855333 -0.855271 -0.85521 -0.855149 
150 -0.86105 -0.861139 -0.861224 -0.861306 -0.861382 -0.861455 -0.861523 -0.861587 -0.861646 -0.8617 
151 -0.84487 -0.844876 -0.844881 -0.844884 -0.844886 -0.844886 -0.844885 -0.844882 -0.844878 -0.844872 
152 -0.850838 -0.850868 -0.850896 -0.850919 -0.85094 -0.850957 -0.850971 -0.850982 -0.850989 -0.850994 
153 -0.847333 -0.847401 -0.847471 -0.847542 -0.847614 -0.847689 -0.847765 -0.847843 -0.847924 -0.848006 
154 -0.845785 -0.845827 -0.845871 -0.845916 -0.845962 -0.84601 -0.846058 -0.846107 -0.846156 -0.846207 
155 -0.844048 -0.84395 -0.843846 -0.843737 -0.843623 -0.843504 -0.84338 -0.843251 -0.843116 -0.842977 
156 -0.856031 -0.856027 -0.856021 -0.856014 -0.856004 -0.855993 -0.855979 -0.855964 -0.855947 -0.855929 
157 -0.857123 -0.85713 -0.857136 -0.85714 -0.857141 -0.857141 -0.857139 -0.857136 -0.857131 -0.857124 
158 -0.840571 -0.840369 -0.840165 -0.839958 -0.839749 -0.839537 -0.839323 -0.839108 -0.838891 -0.838673 
159 -0.850985 -0.850959 -0.850932 -0.850903 -0.850873 -0.85084 -0.850806 -0.85077 -0.850733 -0.850695 
160 -0.859645 -0.859739 -0.859829 -0.859915 -0.859997 -0.860075 -0.860149 -0.860219 -0.860285 -0.860347 
161 -0.835952 -0.835918 -0.835884 -0.835848 -0.835811 -0.835774 -0.835736 -0.835697 -0.835658 -0.835619 
162 -0.843773 -0.843795 -0.84382 -0.843847 -0.843876 -0.843909 -0.843944 -0.843982 -0.844023 -0.844067 
163 -0.841697 -0.841536 -0.841372 -0.841205 -0.841035 -0.840863 -0.840687 -0.840509 -0.840329 -0.840145 
164 -0.855586 -0.855594 -0.855601 -0.855607 -0.855612 -0.855616 -0.855619 -0.85562 -0.85562 -0.855619 
165 -0.859821 -0.859809 -0.859791 -0.859768 -0.859741 -0.859709 -0.859673 -0.859632 -0.859588 -0.859541 
166 -0.835409 -0.835319 -0.835228 -0.835137 -0.835045 -0.834952 -0.834858 -0.834763 -0.834668 -0.834572 
167 -0.85064 -0.85064 -0.850641 -0.850643 -0.850646 -0.85065 -0.850655 -0.850661 -0.850669 -0.850678 
168 -0.837028 -0.837006 -0.836986 -0.836967 -0.836949 -0.836933 -0.836919 -0.836907 -0.836896 -0.836888 
169 -0.860132 -0.860151 -0.860166 -0.860177 -0.860184 -0.860186 -0.860186 -0.860182 -0.860175 -0.860165 
170 -0.861282 -0.861271 -0.86126 -0.861248 -0.861236 -0.861223 -0.861209 -0.861195 -0.86118 -0.861165 
171 -0.862145 -0.862123 -0.862098 -0.862072 -0.862043 -0.862012 -0.861979 -0.861944 -0.861907 -0.861868 
172 -0.840784 -0.840699 -0.840611 -0.84052 -0.840425 -0.840328 -0.840227 -0.840124 -0.840018 -0.83991 
173 -0.850761 -0.850743 -0.850723 -0.850702 -0.850678 -0.850654 -0.850627 -0.850599 -0.850569 -0.850538 
174 -0.858099 -0.858065 -0.85804 -0.858024 -0.858016 -0.858017 -0.858027 -0.858045 -0.858071 -0.858105 
175 -0.867683 -0.867639 -0.867603 -0.867575 -0.867556 -0.867545 -0.867542 -0.867546 -0.867558 -0.867577 
176 -0.841828 -0.841804 -0.84178 -0.841756 -0.841732 -0.841708 -0.841684 -0.841661 -0.841638 -0.841615 
177 -0.83302 -0.832949 -0.832873 -0.832794 -0.832709 -0.832621 -0.832528 -0.832432 -0.832333 -0.83223 
178 -0.865233 -0.865208 -0.865196 -0.865196 -0.865208 -0.865231 -0.865265 -0.865309 -0.865362 -0.865425 
179 -0.850761 -0.850743 -0.850723 -0.850702 -0.850678 -0.850654 -0.850627 -0.850599 -0.850569 -0.850538 
180 -0.845375 -0.845349 -0.845336 -0.845335 -0.845345 -0.845368 -0.845402 -0.845448 -0.845504 -0.84557 
181 -0.870201 -0.870157 -0.870113 -0.870071 -0.870031 -0.869992 -0.869955 -0.86992 -0.869886 -0.869855 
182 -0.825898 -0.825866 -0.825831 -0.825792 -0.825749 -0.825703 -0.825653 -0.8256 -0.825544 -0.825484 
183 -0.833079 -0.833103 -0.833131 -0.833164 -0.833201 -0.833242 -0.833286 -0.833332 -0.833381 -0.833432 
184 -0.834164 -0.834073 -0.833975 -0.833871 -0.833763 -0.833649 -0.833532 -0.833411 -0.833288 -0.833163 
185 -0.872236 -0.872223 -0.872218 -0.87222 -0.872229 -0.872244 -0.872265 -0.872292 -0.872325 -0.872363 
186 -0.882492 -0.882446 -0.882414 -0.882397 -0.882393 -0.882404 -0.88243 -0.882469 -0.882522 -0.882588 
187 -0.831956 -0.831952 -0.831942 -0.831925 -0.831901 -0.83187 -0.831832 -0.831786 -0.831733 -0.831673 
188 -0.857063 -0.857055 -0.857057 -0.857068 -0.85709 -0.857122 -0.857164 -0.857215 -0.857277 -0.857347 
189 -0.879917 -0.879873 -0.879841 -0.879824 -0.87982 -0.879831 -0.879857 -0.879897 -0.879952 -0.88002 
190 -0.846041 -0.846022 -0.846002 -0.845983 -0.845965 -0.845946 -0.845928 -0.845911 -0.845894 -0.845878 
191 -0.850761 -0.850743 -0.850723 -0.850702 -0.850678 -0.850654 -0.850627 -0.850599 -0.850569 -0.850538 
192 -0.804301 -0.804346 -0.804394 -0.804444 -0.804495 -0.804548 -0.804601 -0.804653 -0.804705 -0.804755 
193 -0.850761 -0.850743 -0.850723 -0.850702 -0.850678 -0.850654 -0.850627 -0.850599 -0.850569 -0.850538 
194 -0.860496 -0.860451 -0.8604 -0.860343 -0.860279 -0.86021 -0.860135 -0.860054 -0.859968 -0.859877 
195 -0.847024 -0.846991 -0.84696 -0.846931 -0.846905 -0.846882 -0.846864 -0.846849 -0.84684 -0.846835 
196 -0.845782 -0.845691 -0.845595 -0.845495 -0.84539 -0.845281 -0.845168 -0.845051 -0.844929 -0.844803 
197 -0.846157 -0.846194 -0.846231 -0.846269 -0.846308 -0.846347 -0.846387 -0.846427 -0.846469 -0.846511 
198 -0.850761 -0.850743 -0.850723 -0.850702 -0.850678 -0.850654 -0.850627 -0.850599 -0.850569 -0.850538 
199 -0.792323 -0.792334 -0.792345 -0.792354 -0.792362 -0.792367 -0.792367 -0.792363 -0.792353 -0.792335 
200 -0.826249 -0.826231 -0.826213 -0.826196 -0.82618 -0.826166 -0.826153 -0.826142 -0.826133 -0.826126 
201 -0.899101 -0.899072 -0.899052 -0.899041 -0.89904 -0.899049 -0.899068 -0.899099 -0.899141 -0.899194 
202 -0.850761 -0.850743 -0.850723 -0.850702 -0.850678 -0.850654 -0.850627 -0.850599 -0.850569 -0.850538 
203 -0.869377 -0.869334 -0.869288 -0.869238 -0.869184 -0.869127 -0.869066 -0.869002 -0.868934 -0.868863 
204 -0.852687 -0.85275 -0.852812 -0.852876 -0.852939 -0.853003 -0.853068 -0.853134 -0.8532 -0.853267 
205 -0.890646 -0.890598 -0.890561 -0.890536 -0.890522 -0.89052 -0.89053 -0.890551 -0.890584 -0.890628 
206 -0.850761 -0.850743 -0.850723 -0.850702 -0.850678 -0.850654 -0.850627 -0.850599 -0.850569 -0.850538 
207 -0.769615 -0.769637 -0.769659 -0.769681 -0.769702 -0.76972 -0.769736 -0.769748 -0.769757 -0.769761 
208 -0.85188 -0.851835 -0.851793 -0.851755 -0.851721 -0.851692 -0.851668 -0.851651 -0.85164 -0.851635 
209 -0.886537 -0.886472 -0.886413 -0.886361 -0.886315 -0.886277 -0.886247 -0.886224 -0.88621 -0.886203 
210 -0.909734 -0.909699 -0.909668 -0.909641 -0.909618 -0.9096 -0.909587 -0.909581 -0.909581 -0.909588 
211 -0.850761 -0.850743 -0.850723 -0.850702 -0.850678 -0.850654 -0.850627 -0.850599 -0.850569 -0.850538 
212 -0.850761 -0.850743 -0.850723 -0.850702 -0.850678 -0.850654 -0.850627 -0.850599 -0.850569 -0.850538 
213 -0.845273 -0.845261 -0.845243 -0.845222 -0.845196 -0.845166 -0.845131 -0.845093 -0.84505 -0.845004 
214 -0.757156 -0.757167 -0.757179 -0.757192 -0.757204 -0.757215 -0.757223 -0.757229 -0.757229 -0.757225 
215 -0.786056 -0.785968 -0.785877 -0.785782 -0.785684 -0.785583 -0.785481 -0.785377 -0.785273 -0.785169 
216 -0.794415 -0.794322 -0.794228 -0.794133 -0.794039 -0.793945 -0.793853 -0.793765 -0.793681 -0.793602 
217 -0.856913 -0.857016 -0.857118 -0.857217 -0.857315 -0.857411 -0.857506 -0.857599 -0.857691 -0.857781 
218 -0.833545 -0.833427 -0.833307 -0.833187 -0.833067 -0.832948 -0.832831 -0.832717 -0.832607 -0.832502 
219 -0.850804 -0.850784 -0.850763 -0.850739 -0.850714 -0.850687 -0.850659 -0.850629 -0.850597 -0.850564 
220 -0.943376 -0.943362 -0.943347 -0.943332 -0.943316 -0.943301 -0.943286 -0.943272 -0.94326 -0.94325 
221 -0.780918 -0.780832 -0.780743 -0.780652 -0.780559 -0.780463 -0.780366 -0.780267 -0.780166 -0.780065 
222 -0.724578 -0.724461 -0.724342 -0.724222 -0.724102 -0.723982 -0.723863 -0.723744 -0.723628 -0.723515 
223 -0.895701 -0.89563 -0.895555 -0.895476 -0.895395 -0.895312 -0.895229 -0.895146 -0.895064 -0.894984 
224 -0.915976 -0.915947 -0.915922 -0.915902 -0.915888 -0.91588 -0.915879 -0.915885 -0.915899 -0.915921 
225 -0.831819 -0.831839 -0.831853 -0.831862 -0.831865 -0.831863 -0.831856 -0.831843 -0.831826 -0.831803 
226 -0.799106 -0.799042 -0.798978 -0.798914 -0.79885 -0.798786 -0.798723 -0.79866 -0.798596 -0.798532 
227 -0.879227 -0.879128 -0.879025 -0.878919 -0.878809 -0.878696 -0.87858 -0.878461 -0.87834 -0.878218 
228 -0.821104 -0.821098 -0.821089 -0.821077 -0.821061 -0.821041 -0.821017 -0.820989 -0.820958 -0.820922 
229 -0.850761 -0.850743 -0.850723 -0.850702 -0.850678 -0.850654 -0.850627 -0.850599 -0.850569 -0.850538 
230 -0.850761 -0.850743 -0.850723 -0.850702 -0.850678 -0.850654 -0.850627 -0.850599 -0.850569 -0.850538 
231 -0.850761 -0.850743 -0.850723 -0.850702 -0.850678 -0.850654 -0.850627 -0.850599 -0.850569 -0.850538 
232 -1.0834 -1.0833 -1.0832 -1.0831 -1.083 -1.08289 -1.08279 -1.08269 -1.08259 -1.0825 
233 -0.850758 -0.85074 -0.850721 -0.850699 -0.850676 -0.850651 -0.850625 -0.850597 -0.850567 -0.850536 
234 -0.977833 -0.977807 -0.977779 -0.977747 -0.977714 -0.977678 -0.977642 -0.977606 -0.97757 -0.977535 
235 -0.632538 -0.632391 -0.632234 -0.632066 -0.631888 -0.6317 -0.631501 -0.631293 -0.631076 -0.630852 
236 -0.907395 -0.907364 -0.907339 -0.907319 -0.907304 -0.907297 -0.907296 -0.907302 -0.907315 -0.907336 
237 -1.09906 -1.09898 -1.09889 -1.09881 -1.09872 -1.09862 -1.09853 -1.09844 -1.09834 -1.09825 
238 -0.851055 -0.851033 -0.85101 -0.850985 -0.850958 -0.850929 -0.850898 -0.850866 -0.850832 -0.850798 
239 -0.693393 -0.693249 -0.693092 -0.692922 -0.692739 -0.692542 -0.692332 -0.69211 -0.691878 -0.691636 
240 -0.75807 -0.758006 -0.757943 -0.757881 -0.75782 -0.757759 -0.757699 -0.75764 -0.75758 -0.75752 
241 -0.720101 -0.720011 -0.71992 -0.719828 -0.719735 -0.719641 -0.719545 -0.719446 -0.719346 -0.719244 
242 -0.850761 -0.850743 -0.850723 -0.850702 -0.850679 -0.850654 -0.850627 -0.850599 -0.850569 -0.850538 
243 -0.985086 -0.985076 -0.985062 -0.985045 -0.985024 -0.985001 -0.984976 -0.984949 -0.984922 -0.984894 
244 -1.11166 -1.11157 -1.11149 -1.1114 -1.11131 -1.11122 -1.11114 -1.11106 -1.11099 -1.11093 
245 -0.506725 -0.506623 -0.506519 -0.506415 -0.506307 -0.506197 -0.506083 -0.505965 -0.505842 -0.505714 
246 -1.04482 -1.04475 -1.04468 -1.04461 -1.04453 -1.04446 -1.04439 -1.04433 -1.04427 -1.04421 
247 -0.845953 -0.845713 -0.845468 -0.84522 -0.844968 -0.844713 -0.844455 -0.844194 -0.843931 -0.843666 
248 -0.850761 -0.850743 -0.850723 -0.850702 -0.850678 -0.850654 -0.850627 -0.850599 -0.850569 -0.850538 
249 -0.595543 -0.595438 -0.59533 -0.59522 -0.595106 -0.594987 -0.594864 -0.594735 -0.594602 -0.594463 
250 -0.811988 -0.811917 -0.811846 -0.811778 -0.811711 -0.811646 -0.811582 -0.811519 -0.811457 -0.811396 
251 -0.76502 -0.764933 -0.764853 -0.764782 -0.764719 -0.764665 -0.76462 -0.764583 -0.764553 -0.764529 
252 -0.732325 -0.732235 -0.73214 -0.732042 -0.731941 -0.731835 -0.731726 -0.731612 -0.731496 -0.731376 
253 -0.850761 -0.850743 -0.850723 -0.850702 -0.850678 -0.850654 -0.850627 -0.850599 -0.850569 -0.850538 
254 -0.880764 -0.880738 -0.880713 -0.880691 -0.88067 -0.88065 -0.880632 -0.880616 -0.880602 -0.880589 
255 -0.850756 -0.850738 -0.850718 -0.850697 -0.850673 -0.850648 -0.850622 -0.850593 -0.850564 -0.850533 
256 -0.859252 -0.859268 -0.859281 -0.85929 -0.859295 -0.859297 -0.859297 -0.859293 -0.859288 -0.85928 
257 -1.04449 -1.04443 -1.04437 -1.0443 -1.04423 -1.04416 -1.04408 -1.044 -1.04393 -1.04385 
258 -0.824562 -0.82458 -0.824593 -0.8246 -0.824602 -0.824598 -0.824589 -0.824573 -0.824552 -0.824524 
259 -0.871409 -0.871342 -0.871268 -0.871186 -0.871096 -0.871 -0.870896 -0.870784 -0.870666 -0.870542 
260 -0.618637 -0.618539 -0.618444 -0.618352 -0.618264 -0.618178 -0.618096 -0.618018 -0.617943 -0.617871 
261 -0.992769 -0.99275 -0.992725 -0.992695 -0.992662 -0.992625 -0.992585 -0.992542 -0.992498 -0.992453 
262 -1.025 -1.02496 -1.02493 -1.02489 -1.02484 -1.0248 -1.02475 -1.02471 -1.02466 -1.02461 
263 -0.850758 -0.850741 -0.850721 -0.8507 -0.850677 -0.850652 -0.850626 -0.850598 -0.850568 -0.850537 
264 -0.837354 -0.837398 -0.837437 -0.837469 -0.837495 -0.837515 -0.83753 -0.83754 -0.837546 -0.837547 
265 -0.704857 -0.704758 -0.704656 -0.704552 -0.704447 -0.704339 -0.704229 -0.704118 -0.704005 -0.70389 
266 -0.663505 -0.66343 -0.663355 -0.66328 -0.663203 -0.663124 -0.663044 -0.662961 -0.662876 -0.662789 
267 -0.908892 -0.908914 -0.908936 -0.908961 -0.908987 -0.909014 -0.909042 -0.909071 -0.909099 -0.909128 
268 -0.846066 -0.846184 -0.846304 -0.846427 -0.846552 -0.846678 -0.846807 -0.846936 -0.847067 -0.847197 
269 -0.850761 -0.850743 -0.850723 -0.850702 -0.850678 -0.850654 -0.850627 -0.850599 -0.850569 -0.850538 
270 -1.00575 -1.00573 -1.00571 -1.00569 -1.00566 -1.00564 -1.00561 -1.00557 -1.00554 -1.0055 
271 -0.965731 -0.965717 -0.965699 -0.965677 -0.965653 -0.965627 -0.965598 -0.965568 -0.965536 -0.965503 
272 -0.685511 -0.685373 -0.685234 -0.685094 -0.684956 -0.684819 -0.684685 -0.684555 -0.68443 -0.684312 
273 -0.770494 -0.770359 -0.770225 -0.770093 -0.769963 -0.769837 -0.769716 -0.7696 -0.76949 -0.769385 
274 -0.730152 -0.730068 -0.729984 -0.7299 -0.729816 -0.729732 -0.729648 -0.729565 -0.729482 -0.7294 
275 -0.850179 -0.850181 -0.850181 -0.850179 -0.850176 -0.850171 -0.850165 -0.850157 -0.850147 -0.850137 
276 -0.977384 -0.977354 -0.977321 -0.977286 -0.977248 -0.977208 -0.977167 -0.977125 -0.977082 -0.977038 
277 -0.850761 -0.850743 -0.850723 -0.850702 -0.850678 -0.850654 -0.850627 -0.850599 -0.850569 -0.850538 
278 -0.710543 -0.710473 -0.710406 -0.710343 -0.710282 -0.710225 -0.710171 -0.710121 -0.710073 -0.710028 
279 -0.760966 -0.760845 -0.760726 -0.760609 -0.760495 -0.760384 -0.760277 -0.760174 -0.760076 -0.759981 
280 -0.936926 -0.936937 -0.936946 -0.936952 -0.936955 -0.936956 -0.936953 -0.936947 -0.936937 -0.936924 
281 -0.820444 -0.820369 -0.82028 -0.820177 -0.820061 -0.819932 -0.819792 -0.81964 -0.819478 -0.819307 
282 -0.939302 -0.939309 -0.939316 -0.939324 -0.939334 -0.939344 -0.939356 -0.93937 -0.939384 -0.939399 
283 -0.895555 -0.895563 -0.895569 -0.895573 -0.895573 -0.895571 -0.895565 -0.895556 -0.895542 -0.895524 
284 -0.796365 -0.796245 -0.796117 -0.795982 -0.79584 -0.795691 -0.795539 -0.795382 -0.795223 -0.795063 
285 -0.743022 -0.742934 -0.742829 -0.742709 -0.742574 -0.742424 -0.742261 -0.742086 -0.7419 -0.741706 
286 -0.850761 -0.850743 -0.850723 -0.850702 -0.850678 -0.850654 -0.850627 -0.850599 -0.850569 -0.850538 
287 -0.777847 -0.777808 -0.777762 -0.777709 -0.777649 -0.777582 -0.777509 -0.777429 -0.777342 -0.77725 