VARIABLES = "Cell" "Mode 0" "Mode 1" "Mode 2" "Mode 3" "Mode 4" "Mode 5" "Mode 6" "Mode 7" "Mode 8" "Mode 9" 
ZONE T = Iteration13
0 -0.858398 -0.858665 -0.859004 -0.859304 -0.859501 -0.859633 -0.859771 -0.859884 -0.859849 -0.859594 
1 -0.858398 -0.858665 -0.859004 -0.859304 -0.859501 -0.859633 -0.859771 -0.859884 -0.859849 -0.859594 
2 -0.858398 -0.858665 -0.859004 -0.859304 -0.859501 -0.859633 -0.859771 -0.859884 -0.859849 -0.859594 
3 -0.858398 -0.858665 -0.859004 -0.859304 -0.859501 -0.859633 -0.859771 -0.859884 -0.859849 -0.859594 
4 -0.858398 -0.858665 -0.859004 -0.859304 -0.859501 -0.859633 -0.859771 -0.859884 -0.859849 -0.859594 
5 -0.858398 -0.858665 -0.859004 -0.859304 -0.859501 -0.859633 -0.859771 -0.859884 -0.859849 -0.859594 
6 -0.858398 -0.858665 -0.859004 -0.859304 -0.859501 -0.859633 -0.859771 -0.859884 -0.859849 -0.859594 
7 -0.858398 -0.858665 -0.859004 -0.859304 -0.859501 -0.859633 -0.859771 -0.859884 -0.859849 -0.859594 
8 -0.858398 -0.858665 -0.859004 -0.859304 -0.859501 -0.859633 -0.859771 -0.859884 -0.859849 -0.859594 
9 -0.858398 -0.858665 -0.859004 -0.859304 -0.859501 -0.859633 -0.859771 -0.859884 -0.859849 -0.859594 
10 -0.858398 -0.858665 -0.859004 -0.859304 -0.859501 -0.859633 -0.859771 -0.859884 -0.859849 -0.859594 
11 -0.858398 -0.858665 -0.859004 -0.859304 -0.859501 -0.859633 -0.859771 -0.859884 -0.859849 -0.859594 
12 -0.858398 -0.858665 -0.859004 -0.859304 -0.859501 -0.859633 -0.859771 -0.859884 -0.859849 -0.859594 
13 -0.858398 -0.858665 -0.859004 -0.859304 -0.859501 -0.859633 -0.859771 -0.859884 -0.859849 -0.859594 
14 -0.858398 -0.858665 -0.859004 -0.859304 -0.859501 -0.859633 -0.859771 -0.859884 -0.859849 -0.859594 
15 -0.858398 -0.858665 -0.859004 -0.859304 -0.859501 -0.859633 -0.859771 -0.859884 -0.859849 -0.859594 
16 -0.858398 -0.858665 -0.859004 -0.859304 -0.859501 -0.859633 -0.859771 -0.859884 -0.859849 -0.859594 
17 -0.858398 -0.858665 -0.859004 -0.859304 -0.859501 -0.859633 -0.859771 -0.859884 -0.859849 -0.859594 
18 -0.858398 -0.858665 -0.859004 -0.859304 -0.859501 -0.859633 -0.859771 -0.859884 -0.859849 -0.859594 
19 -0.858398 -0.858665 -0.859004 -0.859304 -0.859501 -0.859633 -0.859771 -0.859884 -0.859849 -0.859594 
20 -0.858398 -0.858665 -0.859004 -0.859304 -0.859501 -0.859633 -0.859771 -0.859884 -0.859849 -0.859594 
21 -0.858398 -0.858665 -0.859004 -0.859304 -0.859501 -0.859633 -0.859771 -0.859884 -0.859849 -0.859594 
22 -0.858398 -0.858665 -0.859004 -0.859304 -0.859501 -0.859633 -0.859771 -0.859884 -0.859849 -0.859594 
23 -0.858398 -0.858665 -0.859004 -0.859304 -0.859501 -0.859633 -0.859771 -0.859884 -0.859849 -0.859594 
24 -0.858398 -0.858665 -0.859004 -0.859304 -0.859501 -0.859633 -0.859771 -0.859884 -0.859849 -0.859594 
25 -0.858398 -0.858665 -0.859004 -0.859304 -0.859501 -0.859633 -0.859771 -0.859884 -0.859849 -0.859594 
26 -0.858398 -0.858665 -0.859004 -0.859304 -0.859501 -0.859633 -0.859771 -0.859884 -0.859849 -0.859594 
27 -0.858398 -0.858665 -0.859004 -0.859304 -0.859501 -0.859633 -0.859771 -0.859884 -0.859849 -0.859594 
28 -0.858398 -0.858665 -0.859004 -0.859304 -0.859501 -0.859633 -0.859771 -0.859884 -0.859849 -0.859594 
29 -0.858398 -0.858665 -0.859004 -0.859304 -0.859501 -0.859633 -0.859771 -0.859884 -0.859849 -0.859594 
30 -0.858398 -0.858665 -0.859004 -0.859304 -0.859501 -0.859633 -0.859771 -0.859884 -0.859849 -0.859594 
31 -0.858398 -0.858665 -0.859004 -0.859304 -0.859501 -0.859633 -0.859771 -0.859884 -0.859849 -0.859594 
32 -0.858398 -0.858665 -0.859004 -0.859304 -0.859501 -0.859633 -0.859771 -0.859884 -0.859849 -0.859594 
33 -0.858398 -0.858665 -0.859004 -0.859304 -0.859501 -0.859633 -0.859771 -0.859884 -0.859849 -0.859594 
34 -0.858398 -0.858665 -0.859004 -0.859304 -0.859501 -0.859633 -0.859771 -0.859884 -0.859849 -0.859594 
35 -0.858398 -0.858665 -0.859004 -0.859304 -0.859501 -0.859633 -0.859771 -0.859884 -0.859849 -0.859594 
36 -0.858398 -0.858665 -0.859004 -0.859304 -0.859501 -0.859633 -0.859771 -0.859884 -0.859849 -0.859594 
37 -0.858398 -0.858665 -0.859004 -0.859304 -0.859501 -0.859633 -0.859771 -0.859884 -0.859849 -0.859594 
38 -0.858398 -0.858665 -0.859004 -0.859304 -0.859501 -0.859633 -0.859771 -0.859884 -0.859849 -0.859594 
39 -0.858398 -0.858665 -0.859004 -0.859304 -0.859501 -0.859633 -0.859771 -0.859884 -0.859849 -0.859594 
40 -0.858398 -0.858665 -0.859004 -0.859304 -0.859501 -0.859633 -0.859771 -0.859884 -0.859849 -0.859594 
41 -0.858398 -0.858665 -0.859004 -0.859304 -0.859501 -0.859633 -0.859771 -0.859884 -0.859849 -0.859594 
42 -0.858398 -0.858665 -0.859004 -0.859304 -0.859501 -0.859633 -0.859771 -0.859884 -0.859849 -0.859594 
43 -0.858398 -0.858665 -0.859004 -0.859304 -0.859501 -0.859633 -0.859771 -0.859884 -0.859849 -0.859594 
44 -0.858398 -0.858665 -0.859004 -0.859304 -0.859501 -0.859633 -0.859771 -0.859884 -0.859849 -0.859594 
45 -0.858398 -0.858665 -0.859004 -0.859304 -0.859501 -0.859633 -0.859771 -0.859884 -0.859849 -0.859594 
46 -0.858398 -0.858665 -0.859004 -0.859304 -0.859501 -0.859633 -0.859771 -0.859884 -0.859849 -0.859594 
47 -0.858398 -0.858665 -0.859004 -0.859304 -0.859501 -0.859633 -0.859771 -0.859884 -0.859849 -0.859594 
48 -0.858398 -0.858665 -0.859004 -0.859304 -0.859501 -0.859633 -0.859771 -0.859884 -0.859849 -0.859594 
49 -0.858398 -0.858665 -0.859004 -0.859304 -0.859501 -0.859633 -0.859771 -0.859884 -0.859849 -0.859594 
50 -0.858398 -0.858665 -0.859004 -0.859304 -0.859501 -0.859633 -0.859771 -0.859884 -0.859849 -0.859594 
51 -0.858398 -0.858665 -0.859004 -0.859304 -0.859501 -0.859633 -0.859771 -0.859884 -0.859849 -0.859594 
52 -0.858398 -0.858665 -0.859004 -0.859304 -0.859501 -0.859633 -0.859771 -0.859884 -0.859849 -0.859594 
53 -0.858398 -0.858665 -0.859004 -0.859304 -0.859501 -0.859633 -0.859771 -0.859884 -0.859849 -0.859594 
54 -0.858398 -0.858665 -0.859004 -0.859304 -0.859501 -0.859633 -0.859771 -0.859884 -0.859849 -0.859594 
55 -0.858398 -0.858665 -0.859004 -0.859304 -0.859501 -0.859633 -0.859771 -0.859884 -0.859849 -0.859594 
56 -0.858398 -0.858665 -0.859004 -0.859304 -0.859501 -0.859633 -0.859771 -0.859884 -0.859849 -0.859594 
57 -0.858398 -0.858665 -0.859004 -0.859304 -0.859501 -0.859633 -0.859771 -0.859884 -0.859849 -0.859594 
58 -0.858398 -0.858665 -0.859004 -0.859304 -0.859501 -0.859633 -0.859771 -0.859884 -0.859849 -0.859594 
59 -0.858398 -0.858665 -0.859004 -0.859304 -0.859501 -0.859633 -0.859771 -0.859884 -0.859849 -0.859594 
60 -0.858398 -0.858665 -0.859004 -0.859304 -0.859501 -0.859633 -0.859771 -0.859884 -0.859849 -0.859594 
61 -0.858398 -0.858665 -0.859004 -0.859304 -0.859501 -0.859633 -0.859771 -0.859884 -0.859849 -0.859594 
62 -0.858398 -0.858665 -0.859004 -0.859304 -0.859501 -0.859633 -0.859771 -0.859884 -0.859849 -0.859594 
63 -0.858398 -0.858665 -0.859004 -0.859304 -0.859501 -0.859633 -0.859771 -0.859884 -0.859849 -0.859594 
64 -0.858398 -0.858665 -0.859004 -0.859304 -0.859501 -0.859633 -0.859771 -0.859884 -0.859849 -0.859594 
65 -0.858398 -0.858665 -0.859004 -0.859304 -0.859501 -0.859633 -0.859771 -0.859884 -0.859849 -0.859594 
66 -0.858398 -0.858665 -0.859004 -0.859304 -0.859501 -0.859633 -0.859771 -0.859884 -0.859849 -0.859594 
67 -0.858398 -0.858665 -0.859004 -0.859304 -0.859501 -0.859633 -0.859771 -0.859884 -0.859849 -0.859594 
68 -0.858398 -0.858665 -0.859004 -0.859304 -0.859501 -0.859633 -0.859771 -0.859884 -0.859849 -0.859594 
69 -0.858398 -0.858665 -0.859004 -0.859304 -0.859501 -0.859633 -0.859771 -0.859884 -0.859849 -0.859594 
70 -0.858398 -0.858665 -0.859004 -0.859304 -0.859501 -0.859633 -0.859771 -0.859884 -0.859849 -0.859594 
71 -0.858398 -0.858665 -0.859004 -0.859304 -0.859501 -0.859633 -0.859771 -0.859884 -0.859849 -0.859594 
72 -0.858398 -0.858665 -0.859004 -0.859304 -0.859501 -0.859633 -0.859771 -0.859884 -0.859849 -0.859594 
73 -0.858398 -0.858665 -0.859004 -0.859304 -0.859501 -0.859633 -0.859771 -0.859884 -0.859849 -0.859594 
74 -0.858398 -0.858665 -0.859004 -0.859304 -0.859501 -0.859633 -0.859771 -0.859884 -0.859849 -0.859594 
75 -0.858398 -0.858665 -0.859004 -0.859304 -0.859501 -0.859633 -0.859771 -0.859884 -0.859849 -0.859594 
76 -0.858398 -0.858665 -0.859004 -0.859304 -0.859501 -0.859633 -0.859771 -0.859884 -0.859849 -0.859594 
77 -0.858398 -0.858665 -0.859004 -0.859304 -0.859501 -0.859633 -0.859771 -0.859884 -0.859849 -0.859594 
78 -0.858398 -0.858665 -0.859004 -0.859304 -0.859501 -0.859633 -0.859771 -0.859884 -0.859849 -0.859594 
79 -0.858398 -0.858665 -0.859004 -0.859304 -0.859501 -0.859633 -0.859771 -0.859884 -0.859849 -0.859594 
80 -0.858398 -0.858665 -0.859004 -0.859304 -0.859501 -0.859633 -0.859771 -0.859884 -0.859849 -0.859594 
81 -0.858398 -0.858665 -0.859004 -0.859304 -0.859501 -0.859633 -0.859771 -0.859884 -0.859849 -0.859594 
82 -0.858398 -0.858665 -0.859004 -0.859304 -0.859501 -0.859633 -0.859771 -0.859884 -0.859849 -0.859594 
83 -0.858398 -0.858665 -0.859004 -0.859304 -0.859501 -0.859633 -0.859771 -0.859884 -0.859849 -0.859594 
84 -0.858398 -0.858665 -0.859004 -0.859304 -0.859501 -0.859633 -0.859771 -0.859884 -0.859849 -0.859594 
85 -0.858398 -0.858665 -0.859004 -0.859304 -0.859501 -0.859633 -0.859771 -0.859884 -0.859849 -0.859594 
86 -0.858398 -0.858665 -0.859004 -0.859304 -0.859501 -0.859633 -0.859771 -0.859884 -0.859849 -0.859594 
87 -0.858398 -0.858665 -0.859004 -0.859304 -0.859501 -0.859633 -0.859771 -0.859884 -0.859849 -0.859594 
88 -0.858398 -0.858665 -0.859004 -0.859304 -0.859501 -0.859633 -0.859771 -0.859884 -0.859849 -0.859594 
89 -0.858398 -0.858665 -0.859004 -0.859304 -0.859501 -0.859633 -0.859771 -0.859884 -0.859849 -0.859594 
90 -0.858398 -0.858665 -0.859004 -0.859304 -0.859501 -0.859633 -0.859771 -0.859884 -0.859849 -0.859594 
91 -0.858398 -0.858665 -0.859004 -0.859304 -0.859501 -0.859633 -0.859771 -0.859884 -0.859849 -0.859594 
92 -0.858398 -0.858665 -0.859004 -0.859304 -0.859501 -0.859633 -0.859771 -0.859884 -0.859849 -0.859594 
93 -0.858398 -0.858665 -0.859004 -0.859304 -0.859501 -0.859633 -0.859771 -0.859884 -0.859849 -0.859594 
94 -0.858398 -0.858665 -0.859004 -0.859304 -0.859501 -0.859633 -0.859771 -0.859884 -0.859849 -0.859594 
95 -0.858398 -0.858665 -0.859004 -0.859304 -0.859501 -0.859633 -0.859771 -0.859884 -0.859849 -0.859594 
96 -0.858398 -0.858665 -0.859004 -0.859304 -0.859501 -0.859633 -0.859771 -0.859884 -0.859849 -0.859594 
97 -0.858398 -0.858665 -0.859004 -0.859304 -0.859501 -0.859633 -0.859771 -0.859884 -0.859849 -0.859594 
98 -0.858398 -0.858665 -0.859004 -0.859304 -0.859501 -0.859633 -0.859771 -0.859884 -0.859849 -0.859594 
99 -0.858398 -0.858665 -0.859004 -0.859304 -0.859501 -0.859633 -0.859771 -0.859884 -0.859849 -0.859594 
100 -0.858398 -0.858665 -0.859004 -0.859304 -0.859501 -0.859633 -0.859771 -0.859884 -0.859849 -0.859594 
101 -0.858398 -0.858665 -0.859004 -0.859304 -0.859501 -0.859633 -0.859771 -0.859884 -0.859849 -0.859594 
102 -0.858398 -0.858665 -0.859004 -0.859304 -0.859501 -0.859633 -0.859771 -0.859884 -0.859849 -0.859594 
103 -0.858398 -0.858665 -0.859004 -0.859304 -0.859501 -0.859633 -0.859771 -0.859884 -0.859849 -0.859594 
104 -0.858398 -0.858665 -0.859004 -0.859304 -0.859501 -0.859633 -0.859771 -0.859884 -0.859849 -0.859594 
105 -0.858398 -0.858665 -0.859004 -0.859304 -0.859501 -0.859633 -0.859771 -0.859884 -0.859849 -0.859594 
106 -0.858398 -0.858665 -0.859004 -0.859304 -0.859501 -0.859633 -0.859771 -0.859884 -0.859849 -0.859594 
107 -0.858398 -0.858665 -0.859004 -0.859304 -0.859501 -0.859633 -0.859771 -0.859884 -0.859849 -0.859594 
108 -0.858398 -0.858665 -0.859004 -0.859304 -0.859501 -0.859633 -0.859771 -0.859884 -0.859849 -0.859594 
109 -0.858398 -0.858665 -0.859004 -0.859304 -0.859501 -0.859633 -0.859771 -0.859884 -0.859849 -0.859594 
110 -0.858398 -0.858665 -0.859004 -0.859304 -0.859501 -0.859633 -0.859771 -0.859884 -0.859849 -0.859594 
111 -0.858398 -0.858665 -0.859004 -0.859304 -0.859501 -0.859633 -0.859771 -0.859884 -0.859849 -0.859594 
112 -0.858398 -0.858665 -0.859004 -0.859304 -0.859501 -0.859633 -0.859771 -0.859884 -0.859849 -0.859594 
113 -0.858398 -0.858665 -0.859004 -0.859304 -0.859501 -0.859633 -0.859771 -0.859884 -0.859849 -0.859594 
114 -0.858398 -0.858665 -0.859004 -0.859304 -0.859501 -0.859633 -0.859771 -0.859884 -0.859849 -0.859594 
115 -0.858398 -0.858665 -0.859004 -0.859304 -0.859501 -0.859633 -0.859771 -0.859884 -0.859849 -0.859594 
116 -0.858398 -0.858665 -0.859004 -0.859304 -0.859501 -0.859633 -0.859771 -0.859884 -0.859849 -0.859594 
117 -0.858398 -0.858665 -0.859004 -0.859304 -0.859501 -0.859633 -0.859771 -0.859884 -0.859849 -0.859594 
118 -0.858398 -0.858665 -0.859004 -0.859304 -0.859501 -0.859633 -0.859771 -0.859884 -0.859849 -0.859594 
119 -0.858398 -0.858665 -0.859004 -0.859304 -0.859501 -0.859633 -0.859771 -0.859884 -0.859849 -0.859594 
120 -0.858398 -0.858665 -0.859004 -0.859304 -0.859501 -0.859633 -0.859771 -0.859884 -0.859849 -0.859594 
121 -0.858398 -0.858665 -0.859004 -0.859304 -0.859501 -0.859633 -0.859771 -0.859884 -0.859849 -0.859594 
122 -0.858398 -0.858665 -0.859004 -0.859304 -0.859501 -0.859633 -0.859771 -0.859884 -0.859849 -0.859594 
123 -0.858398 -0.858665 -0.859004 -0.859304 -0.859501 -0.859633 -0.859771 -0.859884 -0.859849 -0.859594 
124 -0.858398 -0.858665 -0.859004 -0.859304 -0.859501 -0.859633 -0.859771 -0.859884 -0.859849 -0.859594 
125 -0.858398 -0.858665 -0.859004 -0.859304 -0.859501 -0.859633 -0.859771 -0.859884 -0.859849 -0.859594 
126 -0.858398 -0.858665 -0.859004 -0.859304 -0.859501 -0.859633 -0.859771 -0.859884 -0.859849 -0.859594 
127 -0.858398 -0.858665 -0.859004 -0.859304 -0.859501 -0.859633 -0.859771 -0.859884 -0.859849 -0.859594 
128 -0.858398 -0.858665 -0.859004 -0.859304 -0.859501 -0.859633 -0.859771 -0.859884 -0.859849 -0.859594 
129 -0.858398 -0.858665 -0.859004 -0.859304 -0.859501 -0.859633 -0.859771 -0.859884 -0.859849 -0.859594 
130 -0.858398 -0.858665 -0.859004 -0.859304 -0.859501 -0.859633 -0.859771 -0.859884 -0.859849 -0.859594 
131 -0.858398 -0.858665 -0.859004 -0.859304 -0.859501 -0.859633 -0.859771 -0.859884 -0.859849 -0.859594 
132 -0.858398 -0.858665 -0.859004 -0.859304 -0.859501 -0.859633 -0.859771 -0.859884 -0.859849 -0.859594 
133 -0.858398 -0.858665 -0.859004 -0.859304 -0.859501 -0.859633 -0.859771 -0.859884 -0.859849 -0.859594 
134 -0.858398 -0.858665 -0.859004 -0.859304 -0.859501 -0.859633 -0.859771 -0.859884 -0.859849 -0.859594 
135 -0.858398 -0.858665 -0.859004 -0.859304 -0.859501 -0.859633 -0.859771 -0.859884 -0.859849 -0.859594 
136 -0.858398 -0.858665 -0.859004 -0.859304 -0.859501 -0.859633 -0.859771 -0.859884 -0.859849 -0.859594 
137 -0.858398 -0.858665 -0.859004 -0.859304 -0.859501 -0.859633 -0.859771 -0.859884 -0.859849 -0.859594 
138 -0.858397 -0.858665 -0.859004 -0.859304 -0.859501 -0.859633 -0.859771 -0.859884 -0.859849 -0.859594 
139 -0.858398 -0.858665 -0.859004 -0.859304 -0.859501 -0.859633 -0.859771 -0.859884 -0.859849 -0.859594 
140 -0.858398 -0.858665 -0.859004 -0.859304 -0.859501 -0.859633 -0.859771 -0.859884 -0.859849 -0.859594 
141 -0.858398 -0.858665 -0.859004 -0.859304 -0.859501 -0.859633 -0.859771 -0.859884 -0.859849 -0.859594 
142 -0.858397 -0.858665 -0.859004 -0.859304 -0.859501 -0.859633 -0.859771 -0.859884 -0.859849 -0.859594 
143 -0.858398 -0.858665 -0.859004 -0.859304 -0.859501 -0.859633 -0.859771 -0.859884 -0.859849 -0.859594 
144 -0.858396 -0.858663 -0.859002 -0.859303 -0.8595 -0.859633 -0.85977 -0.859884 -0.859849 -0.859594 
145 -0.858397 -0.858665 -0.859004 -0.859304 -0.859501 -0.859633 -0.859771 -0.859884 -0.859849 -0.859594 
146 -0.858397 -0.858665 -0.859004 -0.859304 -0.859501 -0.859633 -0.859771 -0.859884 -0.859849 -0.859594 
147 -0.858398 -0.858665 -0.859004 -0.859304 -0.859501 -0.859633 -0.859771 -0.859884 -0.859849 -0.859594 
148 -0.858398 -0.858665 -0.859004 -0.859304 -0.859501 -0.859633 -0.859771 -0.859884 -0.859849 -0.859594 
149 -0.858397 -0.858665 -0.859004 -0.859304 -0.859501 -0.859633 -0.859771 -0.859884 -0.859849 -0.859594 
150 -0.858398 -0.858665 -0.859004 -0.859304 -0.859501 -0.859633 -0.859771 -0.859884 -0.859849 -0.859594 
151 -0.858403 -0.858669 -0.859007 -0.859306 -0.859502 -0.859634 -0.859771 -0.859884 -0.859849 -0.859594 
152 -0.858398 -0.858665 -0.859004 -0.859304 -0.859501 -0.859633 -0.859771 -0.859884 -0.859849 -0.859594 
153 -0.858391 -0.858661 -0.859002 -0.859304 -0.859501 -0.859634 -0.859771 -0.859885 -0.859849 -0.859594 
154 -0.858415 -0.858678 -0.859012 -0.859309 -0.859503 -0.859634 -0.859771 -0.859884 -0.859849 -0.859594 
155 -0.8584 -0.858666 -0.859005 -0.859305 -0.859501 -0.859633 -0.859771 -0.859884 -0.859849 -0.859594 
156 -0.85842 -0.858675 -0.859006 -0.859303 -0.859499 -0.859632 -0.85977 -0.859884 -0.859849 -0.859594 
157 -0.858389 -0.85866 -0.859001 -0.859303 -0.859501 -0.859633 -0.859771 -0.859885 -0.859849 -0.859594 
158 -0.858397 -0.858664 -0.859003 -0.859304 -0.859501 -0.859633 -0.859771 -0.859884 -0.859849 -0.859594 
159 -0.858398 -0.858665 -0.859004 -0.859304 -0.859501 -0.859633 -0.859771 -0.859884 -0.859849 -0.859594 
160 -0.858398 -0.858665 -0.859004 -0.859304 -0.859501 -0.859633 -0.859771 -0.859884 -0.859849 -0.859594 
161 -0.858047 -0.858346 -0.858747 -0.859122 -0.859389 -0.859576 -0.859748 -0.859879 -0.85985 -0.859595 
162 -0.858423 -0.858716 -0.859065 -0.859362 -0.859546 -0.859663 -0.859787 -0.859891 -0.859851 -0.859594 
163 -0.858388 -0.858673 -0.859018 -0.859317 -0.85951 -0.859638 -0.859772 -0.859885 -0.859849 -0.859593 
164 -0.85876 -0.858918 -0.859156 -0.859377 -0.859522 -0.859629 -0.859759 -0.859875 -0.859845 -0.859592 
165 -0.858396 -0.858661 -0.859 -0.859301 -0.859499 -0.859632 -0.85977 -0.859884 -0.859849 -0.859594 
166 -0.858257 -0.858569 -0.858945 -0.859272 -0.859486 -0.859628 -0.85977 -0.859885 -0.85985 -0.859594 
167 -0.858504 -0.858731 -0.859037 -0.859314 -0.859499 -0.859627 -0.859765 -0.859881 -0.859848 -0.859593 
168 -0.858296 -0.858641 -0.859035 -0.859364 -0.859566 -0.859689 -0.859809 -0.859905 -0.859858 -0.859595 
169 -0.858396 -0.858664 -0.859004 -0.859304 -0.859501 -0.859633 -0.859771 -0.859884 -0.859849 -0.859594 
170 -0.858597 -0.858829 -0.859117 -0.859369 -0.859528 -0.859639 -0.859767 -0.85988 -0.859847 -0.859592 
171 -0.858446 -0.858673 -0.858992 -0.859287 -0.859487 -0.859625 -0.859767 -0.859884 -0.859849 -0.859594 
172 -0.858372 -0.858666 -0.859016 -0.859319 -0.859512 -0.85964 -0.859773 -0.859885 -0.859849 -0.859593 
173 -0.858398 -0.858665 -0.859004 -0.859304 -0.859501 -0.859633 -0.859771 -0.859884 -0.859849 -0.859594 
174 -0.855817 -0.856312 -0.85713 -0.858028 -0.8588 -0.859373 -0.859767 -0.859972 -0.859928 -0.859633 
175 -0.857489 -0.858415 -0.859161 -0.859625 -0.859805 -0.85983 -0.859855 -0.859898 -0.859838 -0.859583 
176 -0.86116 -0.861955 -0.862296 -0.862163 -0.861648 -0.860987 -0.860436 -0.86009 -0.859843 -0.859547 
177 -0.858542 -0.858465 -0.858652 -0.858946 -0.859224 -0.859464 -0.859694 -0.859865 -0.859853 -0.859601 
178 -0.856451 -0.857548 -0.858506 -0.8592 -0.859588 -0.859767 -0.859875 -0.85994 -0.859869 -0.859596 
179 -0.858398 -0.858665 -0.859004 -0.859304 -0.859501 -0.859633 -0.859771 -0.859884 -0.859849 -0.859594 
180 -0.847725 -0.850962 -0.854413 -0.857496 -0.859733 -0.860952 -0.861297 -0.861061 -0.860511 -0.859857 
181 -0.858237 -0.858638 -0.859052 -0.859379 -0.859571 -0.859684 -0.8598 -0.859898 -0.859854 -0.859594 
182 -0.859785 -0.860394 -0.860729 -0.860768 -0.860555 -0.860246 -0.860018 -0.859906 -0.859785 -0.859531 
183 -0.859912 -0.860733 -0.861092 -0.861067 -0.860793 -0.860471 -0.860255 -0.860132 -0.859952 -0.859618 
184 -0.858108 -0.858465 -0.858894 -0.859263 -0.859501 -0.859648 -0.859785 -0.859893 -0.859852 -0.859594 
185 -0.857726 -0.858404 -0.859002 -0.859431 -0.859661 -0.85977 -0.859863 -0.859934 -0.85987 -0.859599 
186 -0.863263 -0.858784 -0.855739 -0.854376 -0.854618 -0.856042 -0.857909 -0.85939 -0.859999 -0.859829 
187 -0.86304 -0.861364 -0.860054 -0.85918 -0.858756 -0.85877 -0.859115 -0.859537 -0.859741 -0.859599 
188 -0.880679 -0.882632 -0.881908 -0.878202 -0.872161 -0.865423 -0.860001 -0.85719 -0.856856 -0.857743 
189 -0.867942 -0.860498 -0.854762 -0.851579 -0.85123 -0.853202 -0.856208 -0.858752 -0.859977 -0.859989 
190 -0.858398 -0.858665 -0.859004 -0.859304 -0.859501 -0.859633 -0.859771 -0.859884 -0.859849 -0.859594 
191 -0.858398 -0.858665 -0.859004 -0.859304 -0.859501 -0.859633 -0.859771 -0.859884 -0.859849 -0.859594 
192 -0.815766 -0.816674 -0.820802 -0.82818 -0.837951 -0.848647 -0.85834 -0.864933 -0.866967 -0.864832 
193 -0.858398 -0.858665 -0.859004 -0.859304 -0.859501 -0.859633 -0.859771 -0.859884 -0.859849 -0.859594 
194 -0.858444 -0.858709 -0.859038 -0.859326 -0.859513 -0.859638 -0.859771 -0.859884 -0.859849 -0.859593 
195 -0.856503 -0.855474 -0.852036 -0.845872 -0.838381 -0.832472 -0.831046 -0.835122 -0.842921 -0.850821 
196 -0.858398 -0.858665 -0.859004 -0.859304 -0.859501 -0.859633 -0.859771 -0.859884 -0.859849 -0.859594 
197 -0.858398 -0.858665 -0.859004 -0.859304 -0.859501 -0.859633 -0.859771 -0.859884 -0.859849 -0.859594 
198 -0.858398 -0.858665 -0.859004 -0.859304 -0.859501 -0.859633 -0.859771 -0.859884 -0.859849 -0.859594 
199 -0.830267 -0.840031 -0.849482 -0.857732 -0.863741 -0.866748 -0.866755 -0.864682 -0.861982 -0.859897 
200 -0.81458 -0.813108 -0.814936 -0.821001 -0.831444 -0.844697 -0.857213 -0.864871 -0.865708 -0.861903 
201 -0.911482 -0.911193 -0.91273 -0.914242 -0.91255 -0.904304 -0.889213 -0.872424 -0.860877 -0.856818 
202 -0.858398 -0.858665 -0.859004 -0.859304 -0.859501 -0.859633 -0.859771 -0.859884 -0.859849 -0.859594 
203 -0.858304 -0.858622 -0.858995 -0.859314 -0.859516 -0.859647 -0.85978 -0.859889 -0.859851 -0.859594 
204 -0.858397 -0.858665 -0.859004 -0.859304 -0.859501 -0.859633 -0.859771 -0.859884 -0.859849 -0.859594 
205 -0.869436 -0.863782 -0.859332 -0.856336 -0.854884 -0.854879 -0.855954 -0.857459 -0.858691 -0.859252 
206 -0.858398 -0.858665 -0.859004 -0.859304 -0.859501 -0.859633 -0.859771 -0.859884 -0.859849 -0.859594 
207 -0.779803 -0.784511 -0.789629 -0.794662 -0.800734 -0.810402 -0.825238 -0.842821 -0.857162 -0.863837 
208 -0.861446 -0.855207 -0.844749 -0.835422 -0.833497 -0.843934 -0.866156 -0.889429 -0.897494 -0.8861 
209 -0.860968 -0.858496 -0.857142 -0.856743 -0.857037 -0.857756 -0.858628 -0.859357 -0.859699 -0.859598 
210 -0.9281 -0.928257 -0.929249 -0.930965 -0.93183 -0.928083 -0.914576 -0.890235 -0.864851 -0.852232 
211 -0.858398 -0.858665 -0.859004 -0.859304 -0.859501 -0.859633 -0.859771 -0.859884 -0.859849 -0.859594 
212 -0.858398 -0.858665 -0.859004 -0.859304 -0.859501 -0.859633 -0.859771 -0.859884 -0.859849 -0.859594 
213 -0.858404 -0.85867 -0.859007 -0.859306 -0.859502 -0.859633 -0.85977 -0.859884 -0.859849 -0.859594 
214 -0.770131 -0.780981 -0.794068 -0.809391 -0.82649 -0.843485 -0.857068 -0.864375 -0.865355 -0.862844 
215 -0.79005 -0.791451 -0.794658 -0.799675 -0.804869 -0.803812 -0.789262 -0.763571 -0.746159 -0.763033 
216 -0.838029 -0.847862 -0.841112 -0.825415 -0.818956 -0.829731 -0.848653 -0.865228 -0.880737 -0.896011 
217 -0.858398 -0.858665 -0.859003 -0.859304 -0.859501 -0.859633 -0.859771 -0.859884 -0.859849 -0.859594 
218 -0.890745 -0.888615 -0.886874 -0.887649 -0.886513 -0.879835 -0.874003 -0.881114 -0.90345 -0.920372 
219 -0.858398 -0.858665 -0.859004 -0.859304 -0.859501 -0.859633 -0.859771 -0.859884 -0.859849 -0.859594 
220 -0.975552 -0.966107 -0.966116 -0.975019 -0.980047 -0.974906 -0.970618 -0.978719 -0.987585 -0.967929 
221 -0.770493 -0.768067 -0.766712 -0.766957 -0.768328 -0.770884 -0.777967 -0.79555 -0.824813 -0.85439 
222 -0.735216 -0.739294 -0.752007 -0.761762 -0.760066 -0.748301 -0.732794 -0.716443 -0.698244 -0.689724 
223 -0.954805 -0.951402 -0.933388 -0.917392 -0.912729 -0.91673 -0.925661 -0.943759 -0.969458 -0.980563 
224 -0.952498 -0.954603 -0.95339 -0.947464 -0.936231 -0.919365 -0.897936 -0.876036 -0.859614 -0.851816 
225 -0.858648 -0.858683 -0.858907 -0.859179 -0.859397 -0.859569 -0.859741 -0.859876 -0.85985 -0.859595 
226 -0.827075 -0.835294 -0.843024 -0.849799 -0.855245 -0.859178 -0.861547 -0.862375 -0.861904 -0.860737 
227 -0.946 -0.945681 -0.941543 -0.941745 -0.934699 -0.910482 -0.88622 -0.891538 -0.91075 -0.900448 
228 -0.863614 -0.86364 -0.863118 -0.862246 -0.861259 -0.860429 -0.859946 -0.859775 -0.859689 -0.859486 
229 -0.858398 -0.858665 -0.859004 -0.859304 -0.859501 -0.859633 -0.859771 -0.859884 -0.859849 -0.859594 
230 -0.858398 -0.858665 -0.859004 -0.859304 -0.859501 -0.859633 -0.859771 -0.859884 -0.859849 -0.859594 
231 -0.858398 -0.858665 -0.859004 -0.859304 -0.859501 -0.859633 -0.859771 -0.859884 -0.859849 -0.859594 
232 -1.11537 -1.13854 -1.12279 -1.07001 -1.02823 -1.03608 -1.06637 -1.0614 -1.02614 -1.02878 
233 -0.858398 -0.858665 -0.859004 -0.859304 -0.859501 -0.859633 -0.859771 -0.859884 -0.859849 -0.859594 
234 -0.98319 -0.977748 -0.983578 -0.99529 -1.00294 -1.0063 -1.01222 -1.0198 -1.01504 -0.981895 
235 -0.637284 -0.618478 -0.624677 -0.641052 -0.642329 -0.625156 -0.609973 -0.609016 -0.620527 -0.631514 
236 -0.951972 -0.946436 -0.936439 -0.921846 -0.903565 -0.88421 -0.867687 -0.85724 -0.853451 -0.854158 
237 -1.15566 -1.17899 -1.16192 -1.09909 -1.04925 -1.05803 -1.08954 -1.07406 -1.01429 -1.01626 
238 -0.858398 -0.858665 -0.859004 -0.859304 -0.859501 -0.859633 -0.859771 -0.859884 -0.859849 -0.859594 
239 -0.721809 -0.702917 -0.716084 -0.739079 -0.727074 -0.680465 -0.652951 -0.673784 -0.702193 -0.678424 
240 -0.754428 -0.756186 -0.75817 -0.759646 -0.761262 -0.765971 -0.778778 -0.802893 -0.833268 -0.857774 
241 -0.69863 -0.697392 -0.700155 -0.707266 -0.715684 -0.72142 -0.7221 -0.715841 -0.706072 -0.711324 
242 -0.858398 -0.858665 -0.859004 -0.859304 -0.859501 -0.859633 -0.859771 -0.859884 -0.859849 -0.859594 
243 -0.981647 -0.984251 -0.987326 -0.988774 -0.993902 -1.00781 -1.02295 -1.01881 -0.980986 -0.92336 
244 -1.11766 -1.10987 -1.09478 -1.102 -1.13536 -1.15115 -1.10348 -1.02895 -1.0322 -1.14449 
245 -0.519397 -0.519381 -0.510183 -0.485579 -0.471278 -0.496127 -0.559574 -0.628606 -0.642356 -0.551136 
246 -1.04699 -1.04142 -1.04695 -1.07436 -1.10652 -1.10848 -1.07009 -1.0332 -1.05354 -1.13409 
247 -0.858397 -0.858665 -0.859004 -0.859304 -0.859501 -0.859633 -0.859771 -0.859884 -0.859849 -0.859594 
248 -0.858398 -0.858665 -0.859004 -0.859304 -0.859501 -0.859633 -0.859771 -0.859884 -0.859849 -0.859594 
249 -0.607301 -0.608694 -0.604294 -0.598677 -0.603248 -0.622683 -0.650646 -0.66754 -0.644569 -0.574854 
250 -0.85331 -0.859305 -0.863506 -0.865684 -0.86593 -0.864755 -0.862947 -0.861245 -0.860042 -0.859341 
251 -0.758681 -0.764132 -0.771125 -0.780234 -0.792591 -0.809088 -0.82873 -0.84757 -0.860584 -0.865551 
252 -0.70959 -0.70567 -0.705015 -0.705509 -0.702663 -0.693846 -0.68314 -0.68398 -0.712631 -0.768357 
253 -0.858398 -0.858665 -0.859004 -0.859304 -0.859501 -0.859633 -0.859771 -0.859884 -0.859849 -0.859594 
254 -0.861224 -0.858763 -0.85727 -0.856683 -0.85684 -0.857521 -0.858445 -0.859268 -0.859692 -0.859636 
255 -0.858398 -0.858665 -0.859004 -0.859304 -0.859501 -0.859633 -0.859771 -0.859884 -0.859849 -0.859594 
256 -0.858413 -0.858675 -0.859009 -0.859307 -0.859502 -0.859633 -0.85977 -0.859884 -0.859849 -0.859594 
257 -1.03698 -1.03845 -1.0673 -1.10425 -1.10894 -1.06494 -1.01731 -1.02755 -1.10759 -1.21443 
258 -0.861406 -0.860621 -0.860041 -0.85967 -0.859475 -0.859456 -0.859597 -0.859776 -0.859803 -0.859582 
259 -0.85648 -0.856682 -0.85728 -0.858025 -0.858709 -0.859253 -0.859662 -0.859909 -0.859908 -0.859639 
260 -0.670117 -0.666168 -0.64869 -0.627114 -0.622785 -0.65008 -0.686185 -0.687005 -0.637135 -0.565413 
261 -0.991022 -0.997454 -1.00317 -1.00398 -1.004 -1.01244 -1.03246 -1.05281 -1.05162 -1.01551 
262 -1.01963 -1.02668 -1.04131 -1.04833 -1.03715 -1.01994 -1.02167 -1.05508 -1.10713 -1.13923 
263 -0.858398 -0.858665 -0.859004 -0.859304 -0.859501 -0.859633 -0.859771 -0.859884 -0.859849 -0.859594 
264 -0.858278 -0.858555 -0.858924 -0.859258 -0.85948 -0.859628 -0.859771 -0.859886 -0.859851 -0.859594 
265 -0.696447 -0.684215 -0.673331 -0.675018 -0.691994 -0.708542 -0.704674 -0.678959 -0.657654 -0.675001 
266 -0.687234 -0.677208 -0.662044 -0.652796 -0.66382 -0.692934 -0.713458 -0.700165 -0.654975 -0.613861 
267 -0.956845 -0.956971 -0.955583 -0.94983 -0.93678 -0.916413 -0.892984 -0.872708 -0.859703 -0.854228 
268 -0.858345 -0.858637 -0.858992 -0.859302 -0.859502 -0.859635 -0.859772 -0.859885 -0.85985 -0.859594 
269 -0.858398 -0.858665 -0.859004 -0.859304 -0.859501 -0.859633 -0.859771 -0.859884 -0.859849 -0.859594 
270 -1.00178 -1.02247 -1.03002 -1.01417 -0.986231 -0.969027 -0.975888 -1.00635 -1.04952 -1.08731 
271 -0.976814 -0.979408 -0.97736 -0.977996 -0.989946 -1.01329 -1.03545 -1.03734 -1.00891 -0.959799 
272 -0.705065 -0.68405 -0.672324 -0.683231 -0.710037 -0.73288 -0.740157 -0.73001 -0.701515 -0.658353 
273 -0.755029 -0.759451 -0.763592 -0.767948 -0.775343 -0.788853 -0.808436 -0.829734 -0.846952 -0.856934 
274 -0.709306 -0.704736 -0.714097 -0.732581 -0.743465 -0.733238 -0.703667 -0.674225 -0.672389 -0.709846 
275 -0.858398 -0.858665 -0.859004 -0.859304 -0.859501 -0.859633 -0.859771 -0.859884 -0.859849 -0.859594 
276 -0.990548 -1.00152 -0.99883 -0.984925 -0.973524 -0.976796 -0.996797 -1.02487 -1.04573 -1.0455 
277 -0.858398 -0.858665 -0.859004 -0.859304 -0.859501 -0.859633 -0.859771 -0.859884 -0.859849 -0.859594 
278 -0.719133 -0.70618 -0.704673 -0.719152 -0.7398 -0.751145 -0.744233 -0.719838 -0.687599 -0.665277 
279 -0.73954 -0.747576 -0.755299 -0.753277 -0.738038 -0.717192 -0.706965 -0.721633 -0.760097 -0.805365 
280 -0.953949 -0.958126 -0.968442 -0.985416 -1.0028 -1.00901 -0.99403 -0.958471 -0.915095 -0.879139 
281 -0.831943 -0.842942 -0.85328 -0.861517 -0.86651 -0.868045 -0.866938 -0.864546 -0.862098 -0.860284 
282 -0.971951 -0.963818 -0.949701 -0.935215 -0.925182 -0.923778 -0.934937 -0.959525 -0.991136 -1.01502 
283 -0.921948 -0.912594 -0.901402 -0.889043 -0.876968 -0.867013 -0.8605 -0.857521 -0.857026 -0.857603 
284 -0.780867 -0.790188 -0.802748 -0.818266 -0.834871 -0.849573 -0.859755 -0.864489 -0.864769 -0.862737 
285 -0.745447 -0.742806 -0.743979 -0.74771 -0.756346 -0.770724 -0.783739 -0.783265 -0.763045 -0.731436 
286 -0.858398 -0.858665 -0.859004 -0.859304 -0.859501 -0.859633 -0.859771 -0.859884 -0.859849 -0.859594 