VARIABLES = "Cell" "Mode 0" "Mode 1" "Mode 2" "Mode 3" "Mode 4" "Mode 5" "Mode 6" "Mode 7" "Mode 8" "Mode 9" 
ZONE T = Iteration283
0 -0.850471 -0.850453 -0.850435 -0.850417 -0.850399 -0.850381 -0.850364 -0.850346 -0.850328 -0.850311 
1 -0.850471 -0.850453 -0.850435 -0.850417 -0.850399 -0.850381 -0.850364 -0.850346 -0.850328 -0.850311 
2 -0.850471 -0.850453 -0.850435 -0.850417 -0.850399 -0.850381 -0.850364 -0.850346 -0.850328 -0.850311 
3 -0.850471 -0.850453 -0.850435 -0.850417 -0.850399 -0.850381 -0.850364 -0.850346 -0.850328 -0.850311 
4 -0.850471 -0.850453 -0.850435 -0.850417 -0.850399 -0.850381 -0.850364 -0.850346 -0.850328 -0.850311 
5 -0.850471 -0.850453 -0.850435 -0.850417 -0.850399 -0.850381 -0.850364 -0.850346 -0.850328 -0.850311 
6 -0.850471 -0.850453 -0.850435 -0.850417 -0.850399 -0.850381 -0.850364 -0.850346 -0.850328 -0.850311 
7 -0.850471 -0.850453 -0.850435 -0.850417 -0.850399 -0.850381 -0.850364 -0.850346 -0.850328 -0.850311 
8 -0.850471 -0.850453 -0.850435 -0.850417 -0.850399 -0.850381 -0.850364 -0.850346 -0.850328 -0.850311 
9 -0.850471 -0.850453 -0.850435 -0.850417 -0.850399 -0.850381 -0.850364 -0.850346 -0.850328 -0.850311 
10 -0.850471 -0.850453 -0.850435 -0.850417 -0.850399 -0.850381 -0.850364 -0.850346 -0.850328 -0.850311 
11 -0.850471 -0.850453 -0.850435 -0.850417 -0.850399 -0.850381 -0.850364 -0.850346 -0.850328 -0.850311 
12 -0.850471 -0.850453 -0.850435 -0.850417 -0.850399 -0.850381 -0.850364 -0.850346 -0.850328 -0.850311 
13 -0.850471 -0.850453 -0.850435 -0.850417 -0.850399 -0.850381 -0.850364 -0.850346 -0.850328 -0.850311 
14 -0.850471 -0.850453 -0.850435 -0.850417 -0.850399 -0.850381 -0.850364 -0.850346 -0.850328 -0.850311 
15 -0.850471 -0.850453 -0.850435 -0.850417 -0.850399 -0.850381 -0.850364 -0.850346 -0.850328 -0.850311 
16 -0.850471 -0.850453 -0.850435 -0.850417 -0.850399 -0.850381 -0.850364 -0.850346 -0.850328 -0.850311 
17 -0.850471 -0.850453 -0.850435 -0.850417 -0.850399 -0.850381 -0.850364 -0.850346 -0.850328 -0.850311 
18 -0.850471 -0.850453 -0.850435 -0.850417 -0.850399 -0.850381 -0.850364 -0.850346 -0.850328 -0.850311 
19 -0.850471 -0.850453 -0.850435 -0.850417 -0.850399 -0.850381 -0.850364 -0.850346 -0.850328 -0.850311 
20 -0.850471 -0.850453 -0.850435 -0.850417 -0.850399 -0.850381 -0.850364 -0.850346 -0.850328 -0.850311 
21 -0.850471 -0.850453 -0.850435 -0.850417 -0.850399 -0.850381 -0.850364 -0.850346 -0.850328 -0.850311 
22 -0.850471 -0.850453 -0.850435 -0.850417 -0.850399 -0.850381 -0.850364 -0.850346 -0.850328 -0.850311 
23 -0.850471 -0.850453 -0.850435 -0.850417 -0.850399 -0.850381 -0.850364 -0.850346 -0.850328 -0.850311 
24 -0.850471 -0.850453 -0.850435 -0.850417 -0.850399 -0.850381 -0.850364 -0.850346 -0.850328 -0.850311 
25 -0.850471 -0.850453 -0.850435 -0.850417 -0.850399 -0.850381 -0.850364 -0.850346 -0.850328 -0.850311 
26 -0.850471 -0.850453 -0.850435 -0.850417 -0.850399 -0.850381 -0.850364 -0.850346 -0.850328 -0.850311 
27 -0.850471 -0.850453 -0.850435 -0.850417 -0.850399 -0.850381 -0.850364 -0.850346 -0.850328 -0.850311 
28 -0.850471 -0.850453 -0.850435 -0.850417 -0.850399 -0.850381 -0.850364 -0.850346 -0.850328 -0.850311 
29 -0.850471 -0.850453 -0.850435 -0.850417 -0.850399 -0.850381 -0.850364 -0.850346 -0.850328 -0.850311 
30 -0.850471 -0.850453 -0.850435 -0.850417 -0.850399 -0.850381 -0.850364 -0.850346 -0.850328 -0.850311 
31 -0.850471 -0.850453 -0.850435 -0.850417 -0.850399 -0.850381 -0.850364 -0.850346 -0.850328 -0.850311 
32 -0.850471 -0.850453 -0.850435 -0.850417 -0.850399 -0.850381 -0.850364 -0.850346 -0.850328 -0.850311 
33 -0.850471 -0.850453 -0.850435 -0.850417 -0.850399 -0.850381 -0.850364 -0.850346 -0.850328 -0.850311 
34 -0.850471 -0.850453 -0.850435 -0.850417 -0.850399 -0.850381 -0.850364 -0.850346 -0.850328 -0.850311 
35 -0.850471 -0.850453 -0.850435 -0.850417 -0.850399 -0.850381 -0.850364 -0.850346 -0.850328 -0.850311 
36 -0.850471 -0.850453 -0.850435 -0.850417 -0.850399 -0.850381 -0.850364 -0.850346 -0.850328 -0.850311 
37 -0.850471 -0.850453 -0.850435 -0.850417 -0.850399 -0.850381 -0.850364 -0.850346 -0.850328 -0.850311 
38 -0.850471 -0.850453 -0.850435 -0.850417 -0.850399 -0.850381 -0.850364 -0.850346 -0.850328 -0.850311 
39 -0.850471 -0.850453 -0.850435 -0.850417 -0.850399 -0.850381 -0.850364 -0.850346 -0.850328 -0.850311 
40 -0.850471 -0.850453 -0.850435 -0.850417 -0.850399 -0.850381 -0.850364 -0.850346 -0.850328 -0.850311 
41 -0.850471 -0.850453 -0.850435 -0.850417 -0.850399 -0.850381 -0.850364 -0.850346 -0.850328 -0.850311 
42 -0.850471 -0.850453 -0.850435 -0.850417 -0.850399 -0.850381 -0.850364 -0.850346 -0.850328 -0.850311 
43 -0.850471 -0.850453 -0.850435 -0.850417 -0.850399 -0.850381 -0.850364 -0.850346 -0.850328 -0.850311 
44 -0.850471 -0.850453 -0.850435 -0.850417 -0.850399 -0.850381 -0.850364 -0.850346 -0.850328 -0.850311 
45 -0.850471 -0.850453 -0.850435 -0.850417 -0.850399 -0.850381 -0.850364 -0.850346 -0.850328 -0.850311 
46 -0.850471 -0.850453 -0.850435 -0.850417 -0.850399 -0.850381 -0.850364 -0.850346 -0.850328 -0.850311 
47 -0.850471 -0.850453 -0.850435 -0.850417 -0.850399 -0.850381 -0.850364 -0.850346 -0.850328 -0.850311 
48 -0.850471 -0.850453 -0.850435 -0.850417 -0.850399 -0.850381 -0.850364 -0.850346 -0.850328 -0.850311 
49 -0.850471 -0.850453 -0.850435 -0.850417 -0.850399 -0.850381 -0.850364 -0.850346 -0.850328 -0.850311 
50 -0.850471 -0.850453 -0.850435 -0.850417 -0.850399 -0.850381 -0.850364 -0.850346 -0.850328 -0.850311 
51 -0.850471 -0.850453 -0.850435 -0.850417 -0.850399 -0.850381 -0.850364 -0.850346 -0.850328 -0.850311 
52 -0.850471 -0.850453 -0.850435 -0.850417 -0.850399 -0.850381 -0.850364 -0.850346 -0.850328 -0.850311 
53 -0.850471 -0.850453 -0.850435 -0.850417 -0.850399 -0.850381 -0.850364 -0.850346 -0.850328 -0.850311 
54 -0.850471 -0.850453 -0.850435 -0.850417 -0.850399 -0.850381 -0.850364 -0.850346 -0.850328 -0.850311 
55 -0.850471 -0.850453 -0.850435 -0.850417 -0.850399 -0.850381 -0.850364 -0.850346 -0.850328 -0.850311 
56 -0.850471 -0.850453 -0.850435 -0.850417 -0.850399 -0.850381 -0.850364 -0.850346 -0.850328 -0.850311 
57 -0.850471 -0.850453 -0.850435 -0.850417 -0.850399 -0.850381 -0.850364 -0.850346 -0.850328 -0.850311 
58 -0.850471 -0.850453 -0.850435 -0.850417 -0.850399 -0.850381 -0.850364 -0.850346 -0.850328 -0.850311 
59 -0.850471 -0.850453 -0.850435 -0.850417 -0.850399 -0.850381 -0.850364 -0.850346 -0.850328 -0.850311 
60 -0.850471 -0.850453 -0.850435 -0.850417 -0.850399 -0.850381 -0.850364 -0.850346 -0.850328 -0.850311 
61 -0.850471 -0.850453 -0.850435 -0.850417 -0.850399 -0.850381 -0.850364 -0.850346 -0.850328 -0.850311 
62 -0.850471 -0.850453 -0.850435 -0.850417 -0.850399 -0.850381 -0.850364 -0.850346 -0.850328 -0.850311 
63 -0.850471 -0.850453 -0.850435 -0.850417 -0.850399 -0.850381 -0.850364 -0.850346 -0.850328 -0.850311 
64 -0.850471 -0.850453 -0.850435 -0.850417 -0.850399 -0.850381 -0.850364 -0.850346 -0.850328 -0.850311 
65 -0.850471 -0.850453 -0.850435 -0.850417 -0.850399 -0.850381 -0.850364 -0.850346 -0.850328 -0.850311 
66 -0.850471 -0.850453 -0.850435 -0.850417 -0.850399 -0.850381 -0.850364 -0.850346 -0.850328 -0.850311 
67 -0.850471 -0.850453 -0.850435 -0.850417 -0.850399 -0.850381 -0.850364 -0.850346 -0.850328 -0.850311 
68 -0.850471 -0.850453 -0.850435 -0.850417 -0.850399 -0.850381 -0.850364 -0.850346 -0.850328 -0.850311 
69 -0.850471 -0.850453 -0.850435 -0.850417 -0.850399 -0.850381 -0.850364 -0.850346 -0.850328 -0.850311 
70 -0.850471 -0.850453 -0.850435 -0.850417 -0.850399 -0.850381 -0.850364 -0.850346 -0.850328 -0.850311 
71 -0.850471 -0.850453 -0.850435 -0.850417 -0.850399 -0.850381 -0.850364 -0.850346 -0.850328 -0.850311 
72 -0.850471 -0.850453 -0.850435 -0.850417 -0.850399 -0.850381 -0.850364 -0.850346 -0.850328 -0.850311 
73 -0.850471 -0.850453 -0.850435 -0.850417 -0.850399 -0.850381 -0.850364 -0.850346 -0.850328 -0.850311 
74 -0.850471 -0.850453 -0.850435 -0.850417 -0.850399 -0.850381 -0.850364 -0.850346 -0.850328 -0.850311 
75 -0.850471 -0.850453 -0.850435 -0.850417 -0.850399 -0.850381 -0.850364 -0.850346 -0.850328 -0.850311 
76 -0.850471 -0.850453 -0.850435 -0.850417 -0.850399 -0.850381 -0.850364 -0.850346 -0.850328 -0.850311 
77 -0.850471 -0.850453 -0.850435 -0.850417 -0.850399 -0.850381 -0.850364 -0.850346 -0.850328 -0.850311 
78 -0.850471 -0.850453 -0.850435 -0.850417 -0.850399 -0.850381 -0.850364 -0.850346 -0.850328 -0.850311 
79 -0.85047 -0.850453 -0.850435 -0.850417 -0.850399 -0.850381 -0.850363 -0.850345 -0.850328 -0.850311 
80 -0.850472 -0.850454 -0.850436 -0.850418 -0.8504 -0.850382 -0.850364 -0.850346 -0.850329 -0.850311 
81 -0.850471 -0.850453 -0.850435 -0.850417 -0.850399 -0.850381 -0.850363 -0.850346 -0.850328 -0.850311 
82 -0.85047 -0.850452 -0.850434 -0.850417 -0.850399 -0.850381 -0.850363 -0.850345 -0.850328 -0.85031 
83 -0.850471 -0.850453 -0.850435 -0.850417 -0.850399 -0.850381 -0.850364 -0.850346 -0.850328 -0.850311 
84 -0.850471 -0.850453 -0.850435 -0.850417 -0.850399 -0.850381 -0.850363 -0.850346 -0.850328 -0.850311 
85 -0.85047 -0.850452 -0.850434 -0.850416 -0.850398 -0.85038 -0.850362 -0.850345 -0.850327 -0.85031 
86 -0.850472 -0.850454 -0.850436 -0.850418 -0.8504 -0.850382 -0.850364 -0.850346 -0.850329 -0.850311 
87 -0.850471 -0.850453 -0.850435 -0.850417 -0.850399 -0.850381 -0.850364 -0.850346 -0.850328 -0.850311 
88 -0.850472 -0.850454 -0.850436 -0.850418 -0.8504 -0.850382 -0.850364 -0.850346 -0.850329 -0.850311 
89 -0.850468 -0.850449 -0.850431 -0.850412 -0.850393 -0.850375 -0.850356 -0.850338 -0.85032 -0.850302 
90 -0.850471 -0.850453 -0.850435 -0.850417 -0.850399 -0.850381 -0.850364 -0.850346 -0.850328 -0.850311 
91 -0.850462 -0.850444 -0.850427 -0.85041 -0.850392 -0.850375 -0.850357 -0.85034 -0.850323 -0.850307 
92 -0.850467 -0.850449 -0.850431 -0.850412 -0.850394 -0.850376 -0.850358 -0.85034 -0.850322 -0.850304 
93 -0.850452 -0.850434 -0.850415 -0.850397 -0.850378 -0.85036 -0.850342 -0.850324 -0.850306 -0.850289 
94 -0.850471 -0.850453 -0.850435 -0.850417 -0.850399 -0.850381 -0.850364 -0.850346 -0.850328 -0.850311 
95 -0.850396 -0.850379 -0.850363 -0.850346 -0.850329 -0.850312 -0.850296 -0.850279 -0.850263 -0.850247 
96 -0.850449 -0.850432 -0.850415 -0.850398 -0.850382 -0.850365 -0.850348 -0.850331 -0.850315 -0.850298 
97 -0.850453 -0.850434 -0.850416 -0.850397 -0.850378 -0.85036 -0.850341 -0.850323 -0.850305 -0.850288 
98 -0.850472 -0.850454 -0.850436 -0.850418 -0.8504 -0.850382 -0.850364 -0.850346 -0.850329 -0.850311 
99 -0.850732 -0.850714 -0.850696 -0.850677 -0.850659 -0.85064 -0.850621 -0.850602 -0.850583 -0.850564 
100 -0.850427 -0.850401 -0.850376 -0.850351 -0.850327 -0.850303 -0.850279 -0.850255 -0.850232 -0.850209 
101 -0.850481 -0.850463 -0.850445 -0.850427 -0.850408 -0.85039 -0.850372 -0.850354 -0.850336 -0.850319 
102 -0.850766 -0.850743 -0.85072 -0.850698 -0.850675 -0.850652 -0.850629 -0.850606 -0.850583 -0.850561 
103 -0.85046 -0.850442 -0.850424 -0.850406 -0.850388 -0.85037 -0.850352 -0.850334 -0.850317 -0.850299 
104 -0.850695 -0.850668 -0.85064 -0.850613 -0.850585 -0.850558 -0.850531 -0.850504 -0.850478 -0.850452 
105 -0.85031 -0.850297 -0.850284 -0.850271 -0.850258 -0.850246 -0.850233 -0.850221 -0.850209 -0.850197 
106 -0.850458 -0.85044 -0.850422 -0.850405 -0.850387 -0.850369 -0.850351 -0.850334 -0.850317 -0.850299 
107 -0.850471 -0.850453 -0.850435 -0.850417 -0.850399 -0.850381 -0.850364 -0.850346 -0.850328 -0.850311 
108 -0.850607 -0.850587 -0.850567 -0.850546 -0.850526 -0.850505 -0.850485 -0.850464 -0.850444 -0.850424 
109 -0.850505 -0.850494 -0.850483 -0.850472 -0.85046 -0.850448 -0.850436 -0.850424 -0.850412 -0.8504 
110 -0.850151 -0.850168 -0.850185 -0.850201 -0.850217 -0.850233 -0.850249 -0.850264 -0.850279 -0.850294 
111 -0.851693 -0.85167 -0.851646 -0.85162 -0.851595 -0.851568 -0.851541 -0.851513 -0.851484 -0.851455 
112 -0.850467 -0.850448 -0.850429 -0.85041 -0.850391 -0.850372 -0.850354 -0.850335 -0.850317 -0.850299 
113 -0.850471 -0.850453 -0.850435 -0.850417 -0.850399 -0.850381 -0.850364 -0.850346 -0.850328 -0.850311 
114 -0.850534 -0.850523 -0.850511 -0.850499 -0.850487 -0.850474 -0.850462 -0.85045 -0.850438 -0.850426 
115 -0.848967 -0.848929 -0.848892 -0.848856 -0.848822 -0.848788 -0.848755 -0.848724 -0.848694 -0.848665 
116 -0.85087 -0.850849 -0.850828 -0.850807 -0.850786 -0.850765 -0.850743 -0.850722 -0.8507 -0.850679 
117 -0.85124 -0.851258 -0.851275 -0.851291 -0.851306 -0.851321 -0.851334 -0.851346 -0.851357 -0.851367 
118 -0.848774 -0.848779 -0.848785 -0.848792 -0.848799 -0.848807 -0.848816 -0.848826 -0.848836 -0.848847 
119 -0.849129 -0.849149 -0.849169 -0.849189 -0.849209 -0.849229 -0.849248 -0.849268 -0.849288 -0.849309 
120 -0.850976 -0.850993 -0.85101 -0.851027 -0.851045 -0.851062 -0.85108 -0.851098 -0.851117 -0.851136 
121 -0.851597 -0.851526 -0.851453 -0.85138 -0.851306 -0.85123 -0.851154 -0.851078 -0.851001 -0.850923 
122 -0.847583 -0.847597 -0.847611 -0.847627 -0.847645 -0.847664 -0.847685 -0.847706 -0.84773 -0.847755 
123 -0.84914 -0.84917 -0.8492 -0.84923 -0.849259 -0.849288 -0.849318 -0.849346 -0.849375 -0.849404 
124 -0.853124 -0.853096 -0.853066 -0.853036 -0.853005 -0.852973 -0.852941 -0.852907 -0.852874 -0.852839 
125 -0.851598 -0.851541 -0.851483 -0.851424 -0.851365 -0.851305 -0.851245 -0.851185 -0.851125 -0.851065 
126 -0.850471 -0.850453 -0.850435 -0.850417 -0.850399 -0.850381 -0.850364 -0.850346 -0.850328 -0.850311 
127 -0.847552 -0.847511 -0.847472 -0.847434 -0.847398 -0.847363 -0.84733 -0.847298 -0.847267 -0.847239 
128 -0.854435 -0.854394 -0.854352 -0.854309 -0.854265 -0.854221 -0.854176 -0.85413 -0.854083 -0.854036 
129 -0.855529 -0.855587 -0.855644 -0.855699 -0.855754 -0.855807 -0.855859 -0.85591 -0.85596 -0.856008 
130 -0.854157 -0.854175 -0.854193 -0.854209 -0.854225 -0.854239 -0.854253 -0.854265 -0.854277 -0.854288 
131 -0.84756 -0.847521 -0.847482 -0.847443 -0.847403 -0.847362 -0.847322 -0.847282 -0.847241 -0.8472 
132 -0.84519 -0.845123 -0.845057 -0.844992 -0.844928 -0.844865 -0.844804 -0.844744 -0.844686 -0.844629 
133 -0.851022 -0.851018 -0.851014 -0.851009 -0.851005 -0.851 -0.850996 -0.850991 -0.850987 -0.850982 
134 -0.848949 -0.848871 -0.848794 -0.848717 -0.848641 -0.848566 -0.848491 -0.848418 -0.848345 -0.848273 
135 -0.844903 -0.844849 -0.844798 -0.844748 -0.8447 -0.844655 -0.844612 -0.844571 -0.844533 -0.844497 
136 -0.850467 -0.850449 -0.850432 -0.850414 -0.850396 -0.850378 -0.85036 -0.850342 -0.850325 -0.850308 
137 -0.850528 -0.850517 -0.850506 -0.850495 -0.850483 -0.850471 -0.85046 -0.850448 -0.850436 -0.850424 
138 -0.853889 -0.853871 -0.853849 -0.853825 -0.853799 -0.85377 -0.853738 -0.853704 -0.853668 -0.853629 
139 -0.846061 -0.846011 -0.845963 -0.845916 -0.84587 -0.845826 -0.845783 -0.845742 -0.845703 -0.845665 
140 -0.848808 -0.848801 -0.848794 -0.848788 -0.848783 -0.848779 -0.848776 -0.848773 -0.848772 -0.848771 
141 -0.85493 -0.85502 -0.855108 -0.855196 -0.855283 -0.855369 -0.855454 -0.855538 -0.855621 -0.855704 
142 -0.845248 -0.845144 -0.845041 -0.844938 -0.844835 -0.844733 -0.844631 -0.844529 -0.844428 -0.844328 
143 -0.85528 -0.855259 -0.855238 -0.855218 -0.855197 -0.855176 -0.855156 -0.855136 -0.855116 -0.855096 
144 -0.852243 -0.852203 -0.852162 -0.852119 -0.852076 -0.852031 -0.851986 -0.851939 -0.851892 -0.851844 
145 -0.845396 -0.845367 -0.845338 -0.84531 -0.845282 -0.845255 -0.845228 -0.845202 -0.845177 -0.845152 
146 -0.8541 -0.854047 -0.853992 -0.853934 -0.853875 -0.853814 -0.853752 -0.853687 -0.853621 -0.853554 
147 -0.856111 -0.856134 -0.856157 -0.856181 -0.856206 -0.856231 -0.856257 -0.856284 -0.856312 -0.85634 
148 -0.845479 -0.845397 -0.845315 -0.845232 -0.845148 -0.845065 -0.84498 -0.844896 -0.844811 -0.844726 
149 -0.856372 -0.856396 -0.856419 -0.856441 -0.856463 -0.856482 -0.856501 -0.856519 -0.856536 -0.856551 
150 -0.852906 -0.85286 -0.852816 -0.852774 -0.852735 -0.852699 -0.852665 -0.852635 -0.852607 -0.852583 
151 -0.846463 -0.846372 -0.846281 -0.846191 -0.846102 -0.846013 -0.845925 -0.845839 -0.845753 -0.845669 
152 -0.846274 -0.846253 -0.846233 -0.846214 -0.846196 -0.846179 -0.846163 -0.846149 -0.846136 -0.846125 
153 -0.852008 -0.851897 -0.851783 -0.851667 -0.851548 -0.851428 -0.851306 -0.851181 -0.851056 -0.850928 
154 -0.848686 -0.848596 -0.848505 -0.848414 -0.848322 -0.84823 -0.848138 -0.848046 -0.847953 -0.847861 
155 -0.844627 -0.844606 -0.844587 -0.844569 -0.844554 -0.844539 -0.844527 -0.844516 -0.844507 -0.8445 
156 -0.858762 -0.858757 -0.858749 -0.858739 -0.858726 -0.858711 -0.858694 -0.858675 -0.858655 -0.858632 
157 -0.858583 -0.858551 -0.858517 -0.858481 -0.858443 -0.858403 -0.858361 -0.858318 -0.858273 -0.858226 
158 -0.844825 -0.844845 -0.844866 -0.844888 -0.844911 -0.844934 -0.844958 -0.844982 -0.845007 -0.845032 
159 -0.849842 -0.849848 -0.849853 -0.849858 -0.849864 -0.849869 -0.849874 -0.849879 -0.849885 -0.849891 
160 -0.852287 -0.852218 -0.852152 -0.852088 -0.852027 -0.851969 -0.851913 -0.85186 -0.85181 -0.851763 
161 -0.837073 -0.837024 -0.836975 -0.836925 -0.836875 -0.836823 -0.836772 -0.83672 -0.836668 -0.836617 
162 -0.847803 -0.847756 -0.847707 -0.847657 -0.847604 -0.84755 -0.847493 -0.847435 -0.847374 -0.847311 
163 -0.841131 -0.841144 -0.84116 -0.84118 -0.841202 -0.841227 -0.841255 -0.841286 -0.841319 -0.841355 
164 -0.860748 -0.860759 -0.860765 -0.860766 -0.860762 -0.860754 -0.860741 -0.860723 -0.860701 -0.860675 
165 -0.858572 -0.858501 -0.858431 -0.858362 -0.858293 -0.858226 -0.85816 -0.858096 -0.858033 -0.857973 
166 -0.835647 -0.835639 -0.835632 -0.835625 -0.835619 -0.835613 -0.835608 -0.835604 -0.835601 -0.835599 
167 -0.855733 -0.855739 -0.855741 -0.85574 -0.855733 -0.855722 -0.855706 -0.855686 -0.855661 -0.855631 
168 -0.839775 -0.839746 -0.839714 -0.839681 -0.839647 -0.83961 -0.839572 -0.839531 -0.83949 -0.839446 
169 -0.8561 -0.856022 -0.855946 -0.855873 -0.855802 -0.855734 -0.855669 -0.855607 -0.855548 -0.855491 
170 -0.865489 -0.865496 -0.865498 -0.865494 -0.865486 -0.865473 -0.865455 -0.865431 -0.865403 -0.865371 
171 -0.864296 -0.864268 -0.864237 -0.864205 -0.864171 -0.864136 -0.8641 -0.864063 -0.864027 -0.863991 
172 -0.842135 -0.842097 -0.842059 -0.842019 -0.841979 -0.841939 -0.841899 -0.841859 -0.841819 -0.84178 
173 -0.850471 -0.850453 -0.850435 -0.850417 -0.850399 -0.850381 -0.850364 -0.850346 -0.850328 -0.850311 
174 -0.863379 -0.8634 -0.863422 -0.863445 -0.863468 -0.86349 -0.863512 -0.863534 -0.863554 -0.863573 
175 -0.872714 -0.872753 -0.872792 -0.872829 -0.872865 -0.872898 -0.872928 -0.872955 -0.872978 -0.872997 
176 -0.845189 -0.845217 -0.845242 -0.845266 -0.845287 -0.845305 -0.845322 -0.845335 -0.845347 -0.845356 
177 -0.835311 -0.835294 -0.835273 -0.835247 -0.835218 -0.835185 -0.835148 -0.835108 -0.835064 -0.835018 
178 -0.871175 -0.871227 -0.871279 -0.871332 -0.871384 -0.871436 -0.871486 -0.871534 -0.871579 -0.87162 
179 -0.850471 -0.850453 -0.850435 -0.850417 -0.850399 -0.850381 -0.850364 -0.850346 -0.850328 -0.850311 
180 -0.84993 -0.84997 -0.850014 -0.850061 -0.850113 -0.850167 -0.850224 -0.850283 -0.850344 -0.850406 
181 -0.871866 -0.87186 -0.871853 -0.871844 -0.871835 -0.871825 -0.871815 -0.871804 -0.871792 -0.87178 
182 -0.82899 -0.829028 -0.829063 -0.829094 -0.829121 -0.829143 -0.829162 -0.829176 -0.829186 -0.829192 
183 -0.8374 -0.837474 -0.837548 -0.83762 -0.837691 -0.83776 -0.837827 -0.837892 -0.837955 -0.838016 
184 -0.836396 -0.836314 -0.836228 -0.836139 -0.836047 -0.835954 -0.835859 -0.835763 -0.835668 -0.835573 
185 -0.876468 -0.876515 -0.87656 -0.876603 -0.876642 -0.876678 -0.87671 -0.876737 -0.87676 -0.876777 
186 -0.888114 -0.888139 -0.888169 -0.888202 -0.888239 -0.888278 -0.88832 -0.888364 -0.88841 -0.888457 
187 -0.834395 -0.834414 -0.834427 -0.834432 -0.83443 -0.834419 -0.834402 -0.834376 -0.834343 -0.834303 
188 -0.861201 -0.861259 -0.861319 -0.861384 -0.861451 -0.861523 -0.861597 -0.861675 -0.861757 -0.861841 
189 -0.884231 -0.884262 -0.884298 -0.884341 -0.88439 -0.884445 -0.884507 -0.884574 -0.884647 -0.884726 
190 -0.849053 -0.849024 -0.848995 -0.848964 -0.848931 -0.848898 -0.848864 -0.848828 -0.848791 -0.848753 
191 -0.850471 -0.850453 -0.850435 -0.850417 -0.850399 -0.850381 -0.850364 -0.850346 -0.850328 -0.850311 
192 -0.808809 -0.808901 -0.808991 -0.809078 -0.809161 -0.809241 -0.809318 -0.809391 -0.809461 -0.809527 
193 -0.850471 -0.850453 -0.850435 -0.850417 -0.850399 -0.850381 -0.850364 -0.850346 -0.850328 -0.850311 
194 -0.857097 -0.857037 -0.856979 -0.856922 -0.856868 -0.856816 -0.856767 -0.85672 -0.856676 -0.856634 
195 -0.853999 -0.854089 -0.854176 -0.854261 -0.854346 -0.854431 -0.854517 -0.854603 -0.854691 -0.854781 
196 -0.844736 -0.844754 -0.844774 -0.844795 -0.844817 -0.844841 -0.844866 -0.844892 -0.84492 -0.844949 
197 -0.849357 -0.849288 -0.849217 -0.849145 -0.849072 -0.848997 -0.848921 -0.848844 -0.848767 -0.848688 
198 -0.850471 -0.850453 -0.850435 -0.850417 -0.850399 -0.850381 -0.850364 -0.850346 -0.850328 -0.850311 
199 -0.795972 -0.796084 -0.796194 -0.796301 -0.796404 -0.796501 -0.796593 -0.796678 -0.796757 -0.796828 
200 -0.832446 -0.832531 -0.832613 -0.832692 -0.832769 -0.832844 -0.832919 -0.832993 -0.833067 -0.833141 
201 -0.903425 -0.903494 -0.903567 -0.903645 -0.903728 -0.903816 -0.903909 -0.904008 -0.904112 -0.904221 
202 -0.850471 -0.850453 -0.850435 -0.850417 -0.850399 -0.850381 -0.850364 -0.850346 -0.850328 -0.850311 
203 -0.867579 -0.867548 -0.867516 -0.867485 -0.867454 -0.867424 -0.867395 -0.867368 -0.867342 -0.867318 
204 -0.849763 -0.849751 -0.84974 -0.84973 -0.849722 -0.849713 -0.849706 -0.8497 -0.849695 -0.849691 
205 -0.894847 -0.89486 -0.894878 -0.894901 -0.894928 -0.89496 -0.894997 -0.895037 -0.895081 -0.895128 
206 -0.850471 -0.850453 -0.850435 -0.850417 -0.850399 -0.850381 -0.850364 -0.850346 -0.850328 -0.850311 
207 -0.774838 -0.774942 -0.775043 -0.775139 -0.77523 -0.775316 -0.775398 -0.775474 -0.775546 -0.775612 
208 -0.860898 -0.861019 -0.861138 -0.861255 -0.861371 -0.861487 -0.861603 -0.86172 -0.861838 -0.861958 
209 -0.889565 -0.889572 -0.889583 -0.889596 -0.889611 -0.88963 -0.88965 -0.889672 -0.889695 -0.88972 
210 -0.917156 -0.917269 -0.917381 -0.917493 -0.917607 -0.917721 -0.917838 -0.917956 -0.918078 -0.918201 
211 -0.850471 -0.850453 -0.850435 -0.850417 -0.850399 -0.850381 -0.850364 -0.850346 -0.850328 -0.850311 
212 -0.850471 -0.850453 -0.850435 -0.850417 -0.850399 -0.850381 -0.850364 -0.850346 -0.850328 -0.850311 
213 -0.841588 -0.841534 -0.841483 -0.841434 -0.841388 -0.841345 -0.841305 -0.841268 -0.841235 -0.841204 
214 -0.761818 -0.761933 -0.762045 -0.762154 -0.76226 -0.762361 -0.762458 -0.762549 -0.762634 -0.762712 
215 -0.794215 -0.794317 -0.794412 -0.794501 -0.794585 -0.794665 -0.794743 -0.794818 -0.794892 -0.794966 
216 -0.801276 -0.801363 -0.801443 -0.801519 -0.801591 -0.801661 -0.80173 -0.801798 -0.801868 -0.80194 
217 -0.849884 -0.849828 -0.849775 -0.849724 -0.849675 -0.849629 -0.849585 -0.849545 -0.849507 -0.849472 
218 -0.84595 -0.846109 -0.846261 -0.846405 -0.846544 -0.846678 -0.846808 -0.846936 -0.847062 -0.847188 
219 -0.850762 -0.850741 -0.85072 -0.850698 -0.850677 -0.850656 -0.850634 -0.850613 -0.850593 -0.850572 
220 -0.946264 -0.946343 -0.946419 -0.946493 -0.946567 -0.94664 -0.946713 -0.946787 -0.946863 -0.94694 
221 -0.787785 -0.787881 -0.787972 -0.788059 -0.788141 -0.788219 -0.788295 -0.788368 -0.788439 -0.788508 
222 -0.738818 -0.738999 -0.739169 -0.739332 -0.739487 -0.739635 -0.739778 -0.739916 -0.74005 -0.740182 
223 -0.901329 -0.901411 -0.901486 -0.901557 -0.901622 -0.901685 -0.901745 -0.901804 -0.901863 -0.901923 
224 -0.918097 -0.918128 -0.918163 -0.918202 -0.918246 -0.918296 -0.918351 -0.918412 -0.918479 -0.918552 
225 -0.833171 -0.833097 -0.833019 -0.832937 -0.832852 -0.832763 -0.832671 -0.832576 -0.832478 -0.832378 
226 -0.800676 -0.80075 -0.800827 -0.800907 -0.80099 -0.801074 -0.80116 -0.801246 -0.801332 -0.801417 
227 -0.889732 -0.889877 -0.89001 -0.890133 -0.890246 -0.89035 -0.890446 -0.890534 -0.890616 -0.890692 
228 -0.822125 -0.822131 -0.822136 -0.822142 -0.822147 -0.822151 -0.822154 -0.822155 -0.822154 -0.82215 
229 -0.850471 -0.850453 -0.850435 -0.850417 -0.850399 -0.850381 -0.850364 -0.850346 -0.850328 -0.850311 
230 -0.850471 -0.850453 -0.850435 -0.850417 -0.850399 -0.850381 -0.850364 -0.850346 -0.850328 -0.850311 
231 -0.850471 -0.850453 -0.850435 -0.850417 -0.850399 -0.850381 -0.850364 -0.850346 -0.850328 -0.850311 
232 -1.09762 -1.09784 -1.09805 -1.09826 -1.09845 -1.09864 -1.09882 -1.09899 -1.09916 -1.09933 
233 -0.850469 -0.850451 -0.850433 -0.850415 -0.850397 -0.850379 -0.850361 -0.850343 -0.850325 -0.850308 
234 -0.981099 -0.981178 -0.981255 -0.981329 -0.981401 -0.981473 -0.981545 -0.981617 -0.981692 -0.981768 
235 -0.645871 -0.646021 -0.646152 -0.646265 -0.646361 -0.64644 -0.646504 -0.646555 -0.646593 -0.64662 
236 -0.908204 -0.908219 -0.90824 -0.908266 -0.908299 -0.908339 -0.908385 -0.908438 -0.908498 -0.908564 
237 -1.11217 -1.11239 -1.1126 -1.11279 -1.11297 -1.11315 -1.11331 -1.11347 -1.11362 -1.11377 
238 -0.851501 -0.851471 -0.851441 -0.851412 -0.851382 -0.851352 -0.851322 -0.851293 -0.851263 -0.851234 
239 -0.704015 -0.704126 -0.704217 -0.70429 -0.704344 -0.70438 -0.704401 -0.704407 -0.704401 -0.704385 
240 -0.761598 -0.761663 -0.761729 -0.761795 -0.761862 -0.761929 -0.761997 -0.762064 -0.762131 -0.762197 
241 -0.726796 -0.726904 -0.727007 -0.727105 -0.727198 -0.727286 -0.72737 -0.72745 -0.727525 -0.727596 
242 -0.850471 -0.850453 -0.850435 -0.850417 -0.850399 -0.850381 -0.850364 -0.850346 -0.850328 -0.850311 
243 -0.986462 -0.986517 -0.986571 -0.986625 -0.986679 -0.986734 -0.986791 -0.98685 -0.986911 -0.986975 
244 -1.11987 -1.12 -1.12012 -1.12024 -1.12035 -1.12046 -1.12057 -1.12068 -1.12079 -1.12089 
245 -0.519069 -0.519218 -0.519353 -0.519475 -0.519584 -0.519678 -0.519759 -0.519825 -0.519879 -0.519918 
246 -1.04878 -1.04886 -1.04893 -1.049 -1.04907 -1.04914 -1.04921 -1.04928 -1.04935 -1.04942 
247 -0.849499 -0.849567 -0.849634 -0.849701 -0.849768 -0.849835 -0.849901 -0.849966 -0.850031 -0.850096 
248 -0.850471 -0.850453 -0.850435 -0.850417 -0.850399 -0.850381 -0.850364 -0.850346 -0.850328 -0.850311 
249 -0.606587 -0.606728 -0.606858 -0.606978 -0.607086 -0.607185 -0.607273 -0.607351 -0.607419 -0.607479 
250 -0.813176 -0.813222 -0.813274 -0.813332 -0.813395 -0.813462 -0.813533 -0.813605 -0.813679 -0.813753 
251 -0.767394 -0.767471 -0.767556 -0.767648 -0.767747 -0.767852 -0.767961 -0.768073 -0.768188 -0.768303 
252 -0.736545 -0.736597 -0.736647 -0.736693 -0.736735 -0.736775 -0.736813 -0.736848 -0.736882 -0.736914 
253 -0.850471 -0.850453 -0.850435 -0.850417 -0.850399 -0.850381 -0.850364 -0.850346 -0.850328 -0.850311 
254 -0.881412 -0.881413 -0.881416 -0.88142 -0.881426 -0.881432 -0.881439 -0.881447 -0.881454 -0.88146 
255 -0.850561 -0.850543 -0.850524 -0.850506 -0.850488 -0.850469 -0.850451 -0.850432 -0.850414 -0.850396 
256 -0.855146 -0.855083 -0.855023 -0.854964 -0.854907 -0.854853 -0.854801 -0.854751 -0.854704 -0.854659 
257 -1.04462 -1.04463 -1.04463 -1.04463 -1.04462 -1.04462 -1.04462 -1.04463 -1.04463 -1.04464 
258 -0.825187 -0.825158 -0.825128 -0.825097 -0.825065 -0.82503 -0.824993 -0.824953 -0.82491 -0.824864 
259 -0.869876 -0.869842 -0.869808 -0.869774 -0.86974 -0.869704 -0.869669 -0.869633 -0.869596 -0.869559 
260 -0.626449 -0.626552 -0.626651 -0.626745 -0.626835 -0.62692 -0.627 -0.627076 -0.627146 -0.627211 
261 -0.992653 -0.992683 -0.992713 -0.992744 -0.992774 -0.992806 -0.99284 -0.992876 -0.992915 -0.992956 
262 -1.02499 -1.02501 -1.02503 -1.02505 -1.02507 -1.02509 -1.02512 -1.02514 -1.02517 -1.0252 
263 -0.850491 -0.850473 -0.850454 -0.850435 -0.850416 -0.850397 -0.850379 -0.85036 -0.850342 -0.850324 
264 -0.837113 -0.836998 -0.836879 -0.836758 -0.836633 -0.836505 -0.836376 -0.836244 -0.836111 -0.835977 
265 -0.708887 -0.708944 -0.708998 -0.70905 -0.7091 -0.709147 -0.709194 -0.709238 -0.709282 -0.709324 
266 -0.669315 -0.669393 -0.669465 -0.669532 -0.669593 -0.669649 -0.669699 -0.669743 -0.669781 -0.669813 
267 -0.908311 -0.908326 -0.908345 -0.908367 -0.908392 -0.908421 -0.908453 -0.908489 -0.908528 -0.908569 
268 -0.84306 -0.842981 -0.842902 -0.842823 -0.842745 -0.842667 -0.84259 -0.842512 -0.842434 -0.842355 
269 -0.850471 -0.850454 -0.850436 -0.850418 -0.8504 -0.850382 -0.850364 -0.850346 -0.850329 -0.850311 
270 -1.00584 -1.00585 -1.00586 -1.00587 -1.00588 -1.00589 -1.0059 -1.0059 -1.00591 -1.00592 
271 -0.965217 -0.965239 -0.965261 -0.965284 -0.965309 -0.965335 -0.965364 -0.965395 -0.965428 -0.965464 
272 -0.689558 -0.68956 -0.689562 -0.689566 -0.689572 -0.68958 -0.689591 -0.689605 -0.689623 -0.689644 
273 -0.77238 -0.77238 -0.772389 -0.772405 -0.77243 -0.772463 -0.772504 -0.772552 -0.772607 -0.772669 
274 -0.732094 -0.732135 -0.732176 -0.732217 -0.732258 -0.7323 -0.732343 -0.732385 -0.732428 -0.732471 
275 -0.84962 -0.849593 -0.849566 -0.849538 -0.849511 -0.849485 -0.849458 -0.849432 -0.849406 -0.84938 
276 -0.977092 -0.977098 -0.977105 -0.977112 -0.97712 -0.977129 -0.977139 -0.977151 -0.977164 -0.977178 
277 -0.850471 -0.850453 -0.850435 -0.850417 -0.850399 -0.850381 -0.850364 -0.850346 -0.850328 -0.850311 
278 -0.71344 -0.713483 -0.713526 -0.713569 -0.713612 -0.713654 -0.713695 -0.713735 -0.713773 -0.71381 
279 -0.762499 -0.762518 -0.762541 -0.762569 -0.762602 -0.762639 -0.762681 -0.762726 -0.762776 -0.762829 
280 -0.935448 -0.935475 -0.935503 -0.935533 -0.935564 -0.935596 -0.935629 -0.935664 -0.935701 -0.935739 
281 -0.823535 -0.823418 -0.823301 -0.823184 -0.82307 -0.822958 -0.822849 -0.822745 -0.822646 -0.822552 
282 -0.939085 -0.939086 -0.939089 -0.939092 -0.939096 -0.939101 -0.939106 -0.939111 -0.939117 -0.939123 
283 -0.893958 -0.893951 -0.893947 -0.893945 -0.893945 -0.893947 -0.89395 -0.893955 -0.893961 -0.893968 
284 -0.799364 -0.799268 -0.799176 -0.799089 -0.799007 -0.798931 -0.798862 -0.798801 -0.798748 -0.798703 
285 -0.744777 -0.744681 -0.744583 -0.744485 -0.744387 -0.74429 -0.744195 -0.744103 -0.744015 -0.743932 
286 -0.850471 -0.850453 -0.850435 -0.850417 -0.850399 -0.850381 -0.850364 -0.850346 -0.850328 -0.850311 
287 -0.77735 -0.777346 -0.777338 -0.777327 -0.777313 -0.777298 -0.77728 -0.77726 -0.77724 -0.777219 