VARIABLES = "Cell" "Mode 0" "Mode 1" "Mode 2" "Mode 3" "Mode 4" "Mode 5" "Mode 6" "Mode 7" "Mode 8" "Mode 9" 
ZONE T = Iteration246
0 -0.85014 -0.850149 -0.85016 -0.850171 -0.850183 -0.850196 -0.85021 -0.850224 -0.850239 -0.850256 
1 -0.85014 -0.850149 -0.85016 -0.850171 -0.850183 -0.850196 -0.85021 -0.850224 -0.850239 -0.850256 
2 -0.85014 -0.850149 -0.85016 -0.850171 -0.850183 -0.850196 -0.85021 -0.850224 -0.850239 -0.850256 
3 -0.85014 -0.850149 -0.85016 -0.850171 -0.850183 -0.850196 -0.85021 -0.850224 -0.850239 -0.850256 
4 -0.85014 -0.850149 -0.85016 -0.850171 -0.850183 -0.850196 -0.85021 -0.850224 -0.850239 -0.850256 
5 -0.85014 -0.850149 -0.85016 -0.850171 -0.850183 -0.850196 -0.85021 -0.850224 -0.850239 -0.850256 
6 -0.85014 -0.850149 -0.85016 -0.850171 -0.850183 -0.850196 -0.85021 -0.850224 -0.850239 -0.850256 
7 -0.85014 -0.850149 -0.85016 -0.850171 -0.850183 -0.850196 -0.85021 -0.850224 -0.850239 -0.850256 
8 -0.85014 -0.850149 -0.85016 -0.850171 -0.850183 -0.850196 -0.85021 -0.850224 -0.850239 -0.850256 
9 -0.85014 -0.850149 -0.85016 -0.850171 -0.850183 -0.850196 -0.85021 -0.850224 -0.850239 -0.850256 
10 -0.85014 -0.850149 -0.85016 -0.850171 -0.850183 -0.850196 -0.85021 -0.850224 -0.850239 -0.850256 
11 -0.85014 -0.850149 -0.85016 -0.850171 -0.850183 -0.850196 -0.85021 -0.850224 -0.850239 -0.850256 
12 -0.85014 -0.850149 -0.85016 -0.850171 -0.850183 -0.850196 -0.85021 -0.850224 -0.850239 -0.850256 
13 -0.85014 -0.850149 -0.85016 -0.850171 -0.850183 -0.850196 -0.85021 -0.850224 -0.850239 -0.850256 
14 -0.85014 -0.850149 -0.85016 -0.850171 -0.850183 -0.850196 -0.85021 -0.850224 -0.850239 -0.850256 
15 -0.85014 -0.850149 -0.85016 -0.850171 -0.850183 -0.850196 -0.85021 -0.850224 -0.850239 -0.850256 
16 -0.85014 -0.850149 -0.85016 -0.850171 -0.850183 -0.850196 -0.85021 -0.850224 -0.850239 -0.850256 
17 -0.85014 -0.850149 -0.85016 -0.850171 -0.850183 -0.850196 -0.85021 -0.850224 -0.850239 -0.850256 
18 -0.85014 -0.850149 -0.85016 -0.850171 -0.850183 -0.850196 -0.85021 -0.850224 -0.850239 -0.850256 
19 -0.85014 -0.850149 -0.85016 -0.850171 -0.850183 -0.850196 -0.85021 -0.850224 -0.850239 -0.850256 
20 -0.85014 -0.850149 -0.85016 -0.850171 -0.850183 -0.850196 -0.85021 -0.850224 -0.850239 -0.850256 
21 -0.85014 -0.850149 -0.85016 -0.850171 -0.850183 -0.850196 -0.85021 -0.850224 -0.850239 -0.850256 
22 -0.85014 -0.850149 -0.85016 -0.850171 -0.850183 -0.850196 -0.85021 -0.850224 -0.850239 -0.850256 
23 -0.85014 -0.850149 -0.85016 -0.850171 -0.850183 -0.850196 -0.85021 -0.850224 -0.850239 -0.850256 
24 -0.85014 -0.850149 -0.85016 -0.850171 -0.850183 -0.850196 -0.85021 -0.850224 -0.850239 -0.850256 
25 -0.85014 -0.850149 -0.85016 -0.850171 -0.850183 -0.850196 -0.85021 -0.850224 -0.850239 -0.850256 
26 -0.85014 -0.850149 -0.85016 -0.850171 -0.850183 -0.850196 -0.85021 -0.850224 -0.850239 -0.850256 
27 -0.85014 -0.850149 -0.85016 -0.850171 -0.850183 -0.850196 -0.85021 -0.850224 -0.850239 -0.850256 
28 -0.85014 -0.850149 -0.85016 -0.850171 -0.850183 -0.850196 -0.85021 -0.850224 -0.850239 -0.850256 
29 -0.85014 -0.850149 -0.85016 -0.850171 -0.850183 -0.850196 -0.85021 -0.850224 -0.850239 -0.850256 
30 -0.85014 -0.850149 -0.85016 -0.850171 -0.850183 -0.850196 -0.85021 -0.850224 -0.850239 -0.850256 
31 -0.85014 -0.850149 -0.85016 -0.850171 -0.850183 -0.850196 -0.85021 -0.850224 -0.850239 -0.850256 
32 -0.85014 -0.850149 -0.85016 -0.850171 -0.850183 -0.850196 -0.85021 -0.850224 -0.850239 -0.850256 
33 -0.85014 -0.850149 -0.85016 -0.850171 -0.850183 -0.850196 -0.85021 -0.850224 -0.850239 -0.850256 
34 -0.85014 -0.850149 -0.85016 -0.850171 -0.850183 -0.850196 -0.85021 -0.850224 -0.850239 -0.850256 
35 -0.85014 -0.850149 -0.85016 -0.850171 -0.850183 -0.850196 -0.85021 -0.850224 -0.850239 -0.850256 
36 -0.85014 -0.850149 -0.85016 -0.850171 -0.850183 -0.850196 -0.85021 -0.850224 -0.850239 -0.850256 
37 -0.85014 -0.850149 -0.85016 -0.850171 -0.850183 -0.850196 -0.85021 -0.850224 -0.850239 -0.850256 
38 -0.85014 -0.850149 -0.85016 -0.850171 -0.850183 -0.850196 -0.85021 -0.850224 -0.850239 -0.850256 
39 -0.85014 -0.850149 -0.85016 -0.850171 -0.850183 -0.850196 -0.85021 -0.850224 -0.850239 -0.850256 
40 -0.85014 -0.850149 -0.85016 -0.850171 -0.850183 -0.850196 -0.85021 -0.850224 -0.850239 -0.850256 
41 -0.85014 -0.850149 -0.85016 -0.850171 -0.850183 -0.850196 -0.85021 -0.850224 -0.850239 -0.850256 
42 -0.85014 -0.850149 -0.85016 -0.850171 -0.850183 -0.850196 -0.85021 -0.850224 -0.850239 -0.850256 
43 -0.85014 -0.850149 -0.85016 -0.850171 -0.850183 -0.850196 -0.85021 -0.850224 -0.850239 -0.850256 
44 -0.85014 -0.850149 -0.85016 -0.850171 -0.850183 -0.850196 -0.85021 -0.850224 -0.850239 -0.850256 
45 -0.85014 -0.850149 -0.85016 -0.850171 -0.850183 -0.850196 -0.85021 -0.850224 -0.850239 -0.850256 
46 -0.85014 -0.850149 -0.85016 -0.850171 -0.850183 -0.850196 -0.85021 -0.850224 -0.850239 -0.850256 
47 -0.85014 -0.850149 -0.85016 -0.850171 -0.850183 -0.850196 -0.85021 -0.850224 -0.850239 -0.850256 
48 -0.85014 -0.850149 -0.85016 -0.850171 -0.850183 -0.850196 -0.85021 -0.850224 -0.850239 -0.850256 
49 -0.85014 -0.850149 -0.85016 -0.850171 -0.850183 -0.850196 -0.85021 -0.850224 -0.850239 -0.850256 
50 -0.85014 -0.850149 -0.85016 -0.850171 -0.850183 -0.850196 -0.85021 -0.850224 -0.850239 -0.850256 
51 -0.85014 -0.850149 -0.85016 -0.850171 -0.850183 -0.850196 -0.85021 -0.850224 -0.850239 -0.850256 
52 -0.85014 -0.850149 -0.85016 -0.850171 -0.850183 -0.850196 -0.85021 -0.850224 -0.850239 -0.850256 
53 -0.85014 -0.850149 -0.85016 -0.850171 -0.850183 -0.850196 -0.85021 -0.850224 -0.850239 -0.850256 
54 -0.85014 -0.850149 -0.85016 -0.850171 -0.850183 -0.850196 -0.85021 -0.850224 -0.850239 -0.850256 
55 -0.85014 -0.850149 -0.85016 -0.850171 -0.850183 -0.850196 -0.85021 -0.850224 -0.850239 -0.850256 
56 -0.85014 -0.850149 -0.85016 -0.850171 -0.850183 -0.850196 -0.85021 -0.850224 -0.850239 -0.850256 
57 -0.85014 -0.850149 -0.85016 -0.850171 -0.850183 -0.850196 -0.85021 -0.850224 -0.850239 -0.850255 
58 -0.85014 -0.850149 -0.85016 -0.850171 -0.850183 -0.850196 -0.85021 -0.850224 -0.850239 -0.850256 
59 -0.85014 -0.850149 -0.85016 -0.850171 -0.850183 -0.850196 -0.85021 -0.850224 -0.850239 -0.850255 
60 -0.85014 -0.850149 -0.85016 -0.850171 -0.850183 -0.850196 -0.85021 -0.850224 -0.850239 -0.850256 
61 -0.85014 -0.850149 -0.85016 -0.850171 -0.850183 -0.850196 -0.85021 -0.850224 -0.850239 -0.850256 
62 -0.85014 -0.850149 -0.85016 -0.850171 -0.850183 -0.850196 -0.85021 -0.850224 -0.850239 -0.850256 
63 -0.85014 -0.850149 -0.85016 -0.850171 -0.850183 -0.850196 -0.85021 -0.850224 -0.850239 -0.850256 
64 -0.85014 -0.850149 -0.85016 -0.850171 -0.850183 -0.850196 -0.85021 -0.850224 -0.850239 -0.850256 
65 -0.85014 -0.850149 -0.850159 -0.850171 -0.850183 -0.850196 -0.85021 -0.850224 -0.850239 -0.850255 
66 -0.85014 -0.850149 -0.85016 -0.850171 -0.850183 -0.850196 -0.85021 -0.850224 -0.850239 -0.850256 
67 -0.85014 -0.850149 -0.850159 -0.850171 -0.850183 -0.850196 -0.85021 -0.850224 -0.850239 -0.850256 
68 -0.85014 -0.850149 -0.850159 -0.850171 -0.850183 -0.850196 -0.85021 -0.850224 -0.850239 -0.850255 
69 -0.85014 -0.850149 -0.85016 -0.850171 -0.850183 -0.850196 -0.85021 -0.850224 -0.850239 -0.850256 
70 -0.85014 -0.850149 -0.85016 -0.850171 -0.850183 -0.850196 -0.85021 -0.850224 -0.850239 -0.850256 
71 -0.85014 -0.850149 -0.85016 -0.850171 -0.850183 -0.850196 -0.85021 -0.850224 -0.850239 -0.850256 
72 -0.85014 -0.850149 -0.850159 -0.850171 -0.850183 -0.850196 -0.85021 -0.850224 -0.850239 -0.850255 
73 -0.85014 -0.850149 -0.850159 -0.850171 -0.850183 -0.850196 -0.85021 -0.850224 -0.850239 -0.850255 
74 -0.85014 -0.850149 -0.85016 -0.850171 -0.850183 -0.850196 -0.85021 -0.850224 -0.850239 -0.850256 
75 -0.85014 -0.850149 -0.850159 -0.850171 -0.850183 -0.850196 -0.85021 -0.850224 -0.850239 -0.850255 
76 -0.85014 -0.850149 -0.85016 -0.850171 -0.850183 -0.850196 -0.85021 -0.850224 -0.850239 -0.850256 
77 -0.85014 -0.850149 -0.85016 -0.850171 -0.850183 -0.850196 -0.85021 -0.850224 -0.850239 -0.850256 
78 -0.85014 -0.850149 -0.850159 -0.850171 -0.850183 -0.850196 -0.85021 -0.850224 -0.850239 -0.850255 
79 -0.85014 -0.85015 -0.85016 -0.850171 -0.850183 -0.850196 -0.85021 -0.850224 -0.85024 -0.850256 
80 -0.85014 -0.850149 -0.850159 -0.850171 -0.850183 -0.850196 -0.850209 -0.850224 -0.850239 -0.850255 
81 -0.85014 -0.850149 -0.850159 -0.850171 -0.850183 -0.850196 -0.850209 -0.850224 -0.850239 -0.850255 
82 -0.85014 -0.850149 -0.850159 -0.850171 -0.850183 -0.850196 -0.85021 -0.850224 -0.850239 -0.850255 
83 -0.85014 -0.850149 -0.85016 -0.850171 -0.850183 -0.850196 -0.85021 -0.850224 -0.85024 -0.850256 
84 -0.85014 -0.850149 -0.85016 -0.850171 -0.850183 -0.850196 -0.85021 -0.850224 -0.85024 -0.850256 
85 -0.85014 -0.850149 -0.850159 -0.850171 -0.850183 -0.850196 -0.85021 -0.850224 -0.85024 -0.850256 
86 -0.85014 -0.850149 -0.85016 -0.850171 -0.850183 -0.850196 -0.85021 -0.850224 -0.85024 -0.850256 
87 -0.85014 -0.850149 -0.85016 -0.850171 -0.850183 -0.850196 -0.85021 -0.850224 -0.850239 -0.850256 
88 -0.85014 -0.850149 -0.850159 -0.850171 -0.850183 -0.850196 -0.850209 -0.850224 -0.850239 -0.850255 
89 -0.850125 -0.850134 -0.850144 -0.850156 -0.850168 -0.850181 -0.850195 -0.850209 -0.850225 -0.850241 
90 -0.85014 -0.850149 -0.85016 -0.850171 -0.850183 -0.850196 -0.85021 -0.850224 -0.850239 -0.850255 
91 -0.850145 -0.850154 -0.850165 -0.850176 -0.850188 -0.850201 -0.850215 -0.85023 -0.850245 -0.850261 
92 -0.850133 -0.850142 -0.850152 -0.850164 -0.850176 -0.850189 -0.850203 -0.850218 -0.850233 -0.850249 
93 -0.850121 -0.85013 -0.850141 -0.850153 -0.850165 -0.850178 -0.850193 -0.850208 -0.850223 -0.85024 
94 -0.85014 -0.850149 -0.85016 -0.850171 -0.850183 -0.850196 -0.85021 -0.850224 -0.850239 -0.850256 
95 -0.85011 -0.850121 -0.850132 -0.850144 -0.850157 -0.850171 -0.850186 -0.850202 -0.850218 -0.850235 
96 -0.850145 -0.850154 -0.850165 -0.850176 -0.850189 -0.850202 -0.850216 -0.85023 -0.850246 -0.850262 
97 -0.850118 -0.850128 -0.850139 -0.85015 -0.850163 -0.850176 -0.850191 -0.850206 -0.850221 -0.850238 
98 -0.85014 -0.850149 -0.85016 -0.850171 -0.850183 -0.850196 -0.85021 -0.850224 -0.85024 -0.850256 
99 -0.850289 -0.850293 -0.850299 -0.850305 -0.850312 -0.85032 -0.850329 -0.850339 -0.850349 -0.85036 
100 -0.849988 -0.849998 -0.85001 -0.850022 -0.850036 -0.850051 -0.850067 -0.850083 -0.850101 -0.850119 
101 -0.850142 -0.850151 -0.850161 -0.850172 -0.850184 -0.850197 -0.850211 -0.850225 -0.85024 -0.850256 
102 -0.850237 -0.850242 -0.850247 -0.850254 -0.850261 -0.850269 -0.850279 -0.850289 -0.8503 -0.850312 
103 -0.850133 -0.850142 -0.850152 -0.850164 -0.850176 -0.850189 -0.850203 -0.850218 -0.850234 -0.85025 
104 -0.850083 -0.850087 -0.850093 -0.8501 -0.850108 -0.850117 -0.850127 -0.850138 -0.85015 -0.850163 
105 -0.850164 -0.850177 -0.850191 -0.850206 -0.850222 -0.850238 -0.850255 -0.850273 -0.850292 -0.850311 
106 -0.850133 -0.850142 -0.850153 -0.850164 -0.850176 -0.850189 -0.850203 -0.850218 -0.850234 -0.85025 
107 -0.85014 -0.850149 -0.85016 -0.850171 -0.850183 -0.850196 -0.85021 -0.850224 -0.850239 -0.850256 
108 -0.850179 -0.850186 -0.850194 -0.850203 -0.850213 -0.850224 -0.850235 -0.850248 -0.850261 -0.850275 
109 -0.850272 -0.85028 -0.850289 -0.850299 -0.85031 -0.850321 -0.850333 -0.850346 -0.850359 -0.850373 
110 -0.85077 -0.850792 -0.850813 -0.850835 -0.850857 -0.850879 -0.850901 -0.850923 -0.850944 -0.850966 
111 -0.85076 -0.850747 -0.850735 -0.850724 -0.850714 -0.850704 -0.850696 -0.850689 -0.850683 -0.850677 
112 -0.85012 -0.85013 -0.85014 -0.850152 -0.850164 -0.850177 -0.850191 -0.850206 -0.850222 -0.850238 
113 -0.85014 -0.850149 -0.85016 -0.850171 -0.850183 -0.850196 -0.85021 -0.850224 -0.850239 -0.850256 
114 -0.850351 -0.850362 -0.850373 -0.850385 -0.850399 -0.850412 -0.850427 -0.850442 -0.850458 -0.850474 
115 -0.848593 -0.84862 -0.848648 -0.848678 -0.848709 -0.848742 -0.848777 -0.848813 -0.84885 -0.848889 
116 -0.850346 -0.850348 -0.850352 -0.850357 -0.850362 -0.850368 -0.850376 -0.850384 -0.850393 -0.850402 
117 -0.851456 -0.851456 -0.851456 -0.851456 -0.851455 -0.851454 -0.851453 -0.851452 -0.851451 -0.851449 
118 -0.849644 -0.849689 -0.849736 -0.849784 -0.849832 -0.849881 -0.84993 -0.849981 -0.850031 -0.850082 
119 -0.850077 -0.850114 -0.850151 -0.850189 -0.850228 -0.850266 -0.850305 -0.850344 -0.850383 -0.850423 
120 -0.851876 -0.85191 -0.851944 -0.851977 -0.852011 -0.852044 -0.852077 -0.85211 -0.852143 -0.852175 
121 -0.849034 -0.848989 -0.848947 -0.848906 -0.848868 -0.848832 -0.848797 -0.848765 -0.848736 -0.848708 
122 -0.849132 -0.849203 -0.849276 -0.849349 -0.849423 -0.849498 -0.849574 -0.84965 -0.849726 -0.849803 
123 -0.850268 -0.850303 -0.850338 -0.850372 -0.850407 -0.850441 -0.850476 -0.85051 -0.850544 -0.850578 
124 -0.851921 -0.851895 -0.851871 -0.851847 -0.851824 -0.851801 -0.851779 -0.851757 -0.851736 -0.851715 
125 -0.849769 -0.849748 -0.849729 -0.849712 -0.849697 -0.849685 -0.849674 -0.849666 -0.84966 -0.849656 
126 -0.85014 -0.850149 -0.85016 -0.850171 -0.850183 -0.850196 -0.85021 -0.850224 -0.85024 -0.850256 
127 -0.847338 -0.847376 -0.847416 -0.847458 -0.847502 -0.847547 -0.847594 -0.847643 -0.847693 -0.847744 
128 -0.852772 -0.852735 -0.852699 -0.852663 -0.852627 -0.852593 -0.852559 -0.852525 -0.852492 -0.852459 
129 -0.856846 -0.856857 -0.856866 -0.856873 -0.856879 -0.856883 -0.856885 -0.856886 -0.856885 -0.856882 
130 -0.854414 -0.854417 -0.854419 -0.854421 -0.854424 -0.854426 -0.854428 -0.85443 -0.854432 -0.854434 
131 -0.846444 -0.846441 -0.84644 -0.846441 -0.846444 -0.84645 -0.846457 -0.846466 -0.846478 -0.846491 
132 -0.843934 -0.843946 -0.84396 -0.843976 -0.843995 -0.844016 -0.844039 -0.844064 -0.844091 -0.84412 
133 -0.851109 -0.851128 -0.851147 -0.851168 -0.85119 -0.851213 -0.851237 -0.851262 -0.851288 -0.851315 
134 -0.847092 -0.847088 -0.847087 -0.847089 -0.847093 -0.8471 -0.84711 -0.847122 -0.847137 -0.847154 
135 -0.84464 -0.844685 -0.844733 -0.844782 -0.844834 -0.844888 -0.844943 -0.845 -0.845059 -0.845119 
136 -0.850139 -0.850148 -0.850158 -0.850169 -0.850182 -0.850195 -0.850208 -0.850223 -0.850238 -0.850254 
137 -0.850325 -0.850334 -0.850344 -0.850355 -0.850366 -0.850378 -0.850391 -0.850404 -0.850418 -0.850433 
138 -0.85214 -0.852093 -0.852048 -0.852004 -0.851961 -0.85192 -0.851881 -0.851843 -0.851806 -0.851771 
139 -0.845508 -0.845532 -0.845556 -0.845583 -0.84561 -0.845639 -0.845668 -0.845699 -0.845731 -0.845763 
140 -0.849323 -0.849364 -0.849407 -0.849451 -0.849495 -0.849541 -0.849588 -0.849635 -0.849683 -0.849732 
141 -0.857687 -0.857743 -0.857797 -0.85785 -0.8579 -0.857949 -0.857996 -0.85804 -0.858083 -0.858123 
142 -0.842193 -0.842154 -0.842117 -0.842084 -0.842055 -0.842028 -0.842004 -0.841984 -0.841967 -0.841953 
143 -0.854908 -0.85492 -0.854932 -0.854945 -0.85496 -0.854976 -0.854993 -0.855011 -0.85503 -0.85505 
144 -0.85032 -0.85026 -0.8502 -0.850141 -0.850081 -0.850021 -0.849962 -0.849903 -0.849844 -0.849787 
145 -0.844759 -0.844755 -0.84475 -0.844746 -0.844742 -0.844738 -0.844734 -0.84473 -0.844726 -0.844722 
146 -0.85165 -0.851602 -0.851556 -0.851513 -0.851473 -0.851434 -0.851399 -0.851366 -0.851335 -0.851306 
147 -0.857543 -0.8576 -0.857657 -0.857715 -0.857773 -0.857831 -0.85789 -0.857948 -0.858006 -0.858064 
148 -0.84264 -0.842587 -0.842536 -0.842487 -0.84244 -0.842395 -0.842353 -0.842312 -0.842274 -0.842238 
149 -0.856718 -0.856722 -0.856726 -0.85673 -0.856735 -0.85674 -0.856745 -0.85675 -0.856755 -0.856759 
150 -0.853546 -0.853644 -0.853745 -0.85385 -0.853959 -0.854071 -0.854186 -0.854305 -0.854426 -0.85455 
151 -0.844206 -0.844192 -0.844181 -0.844172 -0.844166 -0.844161 -0.844158 -0.844158 -0.844158 -0.844161 
152 -0.846672 -0.846727 -0.846785 -0.846845 -0.846907 -0.846972 -0.847038 -0.847106 -0.847177 -0.847249 
153 -0.847273 -0.847162 -0.847055 -0.846951 -0.84685 -0.846754 -0.846662 -0.846575 -0.846492 -0.846414 
154 -0.845907 -0.845873 -0.845841 -0.845811 -0.845783 -0.845757 -0.845733 -0.84571 -0.845689 -0.845669 
155 -0.844854 -0.844878 -0.844902 -0.844926 -0.84495 -0.844973 -0.844996 -0.845019 -0.845041 -0.845062 
156 -0.857735 -0.857689 -0.857642 -0.857592 -0.857541 -0.857488 -0.857434 -0.857378 -0.857321 -0.857263 
157 -0.85665 -0.8566 -0.856552 -0.856506 -0.856462 -0.85642 -0.85638 -0.856344 -0.856309 -0.856278 
158 -0.845673 -0.845682 -0.845689 -0.845694 -0.845696 -0.845696 -0.845693 -0.845687 -0.845679 -0.845667 
159 -0.850266 -0.850289 -0.850314 -0.850338 -0.850363 -0.850389 -0.850414 -0.85044 -0.850467 -0.850493 
160 -0.852033 -0.852112 -0.852197 -0.852286 -0.85238 -0.852479 -0.852583 -0.852691 -0.852804 -0.852921 
161 -0.835845 -0.83585 -0.835857 -0.835865 -0.835875 -0.835886 -0.835898 -0.835911 -0.835926 -0.835941 
162 -0.844793 -0.8447 -0.84461 -0.844523 -0.844439 -0.844359 -0.844282 -0.844208 -0.844139 -0.844074 
163 -0.84281 -0.842867 -0.842925 -0.842983 -0.843041 -0.8431 -0.843159 -0.843219 -0.843278 -0.843338 
164 -0.85903 -0.85896 -0.858888 -0.858815 -0.85874 -0.858664 -0.858585 -0.858505 -0.858423 -0.858339 
165 -0.857298 -0.857304 -0.857311 -0.85732 -0.857331 -0.857344 -0.857358 -0.857375 -0.857394 -0.857416 
166 -0.836131 -0.836174 -0.836218 -0.836263 -0.836309 -0.836356 -0.836403 -0.83645 -0.836498 -0.836545 
167 -0.853627 -0.853548 -0.853471 -0.853395 -0.85332 -0.853245 -0.853172 -0.8531 -0.853028 -0.852957 
168 -0.837987 -0.837947 -0.837909 -0.837874 -0.837841 -0.837811 -0.837782 -0.837757 -0.837733 -0.837713 
169 -0.854911 -0.854938 -0.854971 -0.855009 -0.855053 -0.855101 -0.855155 -0.855215 -0.85528 -0.855351 
170 -0.864102 -0.864074 -0.864047 -0.864019 -0.863991 -0.863961 -0.86393 -0.863897 -0.863861 -0.863823 
171 -0.863899 -0.863906 -0.863909 -0.86391 -0.863906 -0.863897 -0.863884 -0.863867 -0.863844 -0.863817 
172 -0.84144 -0.841455 -0.841471 -0.841487 -0.841505 -0.841523 -0.841541 -0.84156 -0.841579 -0.841598 
173 -0.85014 -0.850149 -0.85016 -0.850171 -0.850183 -0.850196 -0.85021 -0.850224 -0.850239 -0.850256 
174 -0.862571 -0.862483 -0.862394 -0.862304 -0.862215 -0.862127 -0.862039 -0.861953 -0.861869 -0.861786 
175 -0.872026 -0.871988 -0.871953 -0.871922 -0.871894 -0.87187 -0.871848 -0.87183 -0.871813 -0.871799 
176 -0.844785 -0.844736 -0.844685 -0.844631 -0.844576 -0.844518 -0.844459 -0.844397 -0.844334 -0.84427 
177 -0.833901 -0.833892 -0.833884 -0.833877 -0.833871 -0.833866 -0.833861 -0.833857 -0.833853 -0.833849 
178 -0.870475 -0.870398 -0.870323 -0.870253 -0.870187 -0.870125 -0.870067 -0.870014 -0.869964 -0.869919 
179 -0.85014 -0.850149 -0.85016 -0.850171 -0.850183 -0.850196 -0.85021 -0.850224 -0.850239 -0.850256 
180 -0.850523 -0.850437 -0.850348 -0.850256 -0.850161 -0.850065 -0.849967 -0.849869 -0.849771 -0.849674 
181 -0.871985 -0.872016 -0.872046 -0.872075 -0.872104 -0.872131 -0.872156 -0.87218 -0.872201 -0.872219 
182 -0.828152 -0.828095 -0.828037 -0.82798 -0.827921 -0.827863 -0.827804 -0.827745 -0.827685 -0.827626 
183 -0.838035 -0.837968 -0.837897 -0.837822 -0.837743 -0.83766 -0.837573 -0.837482 -0.837388 -0.83729 
184 -0.834126 -0.834107 -0.834088 -0.834069 -0.83405 -0.834031 -0.834012 -0.833994 -0.833976 -0.833958 
185 -0.876127 -0.876124 -0.876125 -0.876128 -0.876134 -0.876143 -0.876153 -0.876164 -0.876176 -0.876187 
186 -0.888366 -0.888294 -0.88822 -0.888144 -0.888067 -0.887989 -0.88791 -0.887831 -0.887753 -0.887675 
187 -0.832377 -0.832352 -0.832331 -0.832314 -0.832301 -0.83229 -0.832282 -0.832277 -0.832272 -0.832269 
188 -0.863409 -0.863362 -0.863305 -0.863238 -0.863163 -0.86308 -0.862988 -0.862888 -0.862782 -0.862669 
189 -0.88627 -0.886212 -0.886144 -0.886067 -0.885983 -0.88589 -0.88579 -0.885685 -0.885574 -0.885458 
190 -0.84756 -0.84752 -0.847481 -0.847442 -0.847404 -0.847367 -0.84733 -0.847294 -0.847258 -0.847223 
191 -0.85014 -0.850149 -0.85016 -0.850171 -0.850183 -0.850196 -0.85021 -0.850224 -0.850239 -0.850256 
192 -0.809826 -0.809767 -0.809702 -0.809631 -0.809553 -0.809468 -0.809377 -0.809279 -0.809174 -0.809062 
193 -0.85014 -0.850149 -0.85016 -0.850171 -0.850183 -0.850196 -0.85021 -0.850224 -0.850239 -0.850256 
194 -0.856853 -0.856909 -0.856967 -0.857029 -0.857093 -0.85716 -0.85723 -0.857302 -0.857377 -0.857455 
195 -0.856582 -0.856498 -0.856397 -0.856277 -0.856139 -0.855984 -0.855812 -0.855623 -0.855418 -0.855197 
196 -0.84619 -0.84624 -0.846288 -0.846335 -0.846382 -0.846427 -0.846471 -0.846513 -0.846554 -0.846593 
197 -0.846569 -0.846509 -0.846452 -0.846395 -0.846341 -0.846289 -0.846238 -0.846189 -0.846142 -0.846097 
198 -0.85014 -0.850149 -0.85016 -0.850171 -0.850183 -0.850196 -0.85021 -0.850224 -0.850239 -0.850256 
199 -0.79576 -0.795672 -0.795585 -0.7955 -0.795418 -0.795338 -0.79526 -0.795185 -0.795112 -0.795041 
200 -0.834516 -0.834447 -0.834363 -0.834264 -0.83415 -0.834021 -0.833877 -0.833718 -0.833545 -0.833359 
201 -0.906531 -0.906468 -0.90639 -0.906298 -0.906193 -0.906074 -0.905943 -0.9058 -0.905647 -0.905483 
202 -0.85014 -0.850149 -0.85016 -0.850171 -0.850183 -0.850196 -0.85021 -0.850224 -0.850239 -0.850256 
203 -0.868191 -0.868265 -0.868338 -0.868411 -0.868483 -0.868554 -0.868623 -0.86869 -0.868755 -0.868818 
204 -0.850076 -0.850106 -0.850138 -0.85017 -0.850203 -0.850236 -0.85027 -0.850305 -0.85034 -0.850376 
205 -0.895528 -0.895468 -0.895406 -0.89534 -0.895271 -0.895201 -0.895129 -0.895056 -0.894982 -0.894908 
206 -0.85014 -0.850149 -0.85016 -0.850171 -0.850183 -0.850196 -0.85021 -0.850224 -0.850239 -0.850256 
207 -0.775638 -0.775568 -0.775492 -0.77541 -0.775321 -0.775225 -0.775123 -0.775014 -0.774899 -0.774777 
208 -0.863564 -0.863412 -0.863239 -0.863045 -0.862829 -0.862594 -0.862338 -0.862065 -0.861774 -0.861468 
209 -0.889965 -0.889947 -0.889927 -0.889907 -0.889886 -0.889864 -0.889843 -0.889821 -0.889798 -0.889776 
210 -0.919988 -0.919855 -0.919703 -0.919532 -0.919342 -0.919134 -0.918909 -0.918668 -0.918412 -0.918142 
211 -0.85014 -0.850149 -0.85016 -0.850171 -0.850183 -0.850196 -0.85021 -0.850224 -0.850239 -0.850256 
212 -0.85014 -0.850149 -0.85016 -0.850171 -0.850183 -0.850196 -0.85021 -0.850224 -0.850239 -0.850256 
213 -0.841804 -0.841869 -0.841936 -0.842005 -0.842076 -0.842149 -0.842223 -0.842299 -0.842376 -0.842455 
214 -0.762114 -0.762023 -0.761931 -0.761836 -0.761741 -0.761644 -0.761546 -0.761447 -0.761348 -0.761248 
215 -0.796748 -0.796685 -0.796603 -0.796502 -0.796382 -0.796242 -0.796083 -0.795904 -0.795706 -0.795491 
216 -0.804244 -0.804196 -0.804129 -0.804041 -0.803932 -0.803802 -0.803651 -0.80348 -0.803289 -0.80308 
217 -0.850129 -0.850214 -0.850303 -0.850395 -0.85049 -0.850589 -0.85069 -0.850794 -0.850901 -0.85101 
218 -0.848989 -0.84882 -0.848624 -0.848401 -0.848152 -0.847877 -0.847576 -0.847251 -0.846904 -0.846535 
219 -0.850319 -0.850325 -0.850333 -0.850342 -0.850351 -0.850361 -0.850373 -0.850385 -0.850397 -0.850411 
220 -0.949087 -0.949062 -0.949023 -0.94897 -0.948903 -0.948821 -0.948725 -0.948614 -0.948491 -0.948354 
221 -0.789879 -0.789833 -0.789772 -0.789698 -0.789609 -0.789506 -0.789388 -0.789256 -0.789109 -0.788949 
222 -0.741465 -0.741273 -0.741054 -0.740809 -0.740538 -0.740242 -0.739921 -0.739576 -0.739208 -0.738818 
223 -0.903897 -0.903863 -0.903812 -0.903744 -0.903657 -0.903553 -0.903431 -0.903291 -0.903133 -0.902959 
224 -0.920796 -0.920774 -0.920741 -0.920696 -0.920639 -0.920571 -0.920492 -0.920403 -0.920304 -0.920197 
225 -0.829575 -0.829515 -0.829459 -0.829408 -0.829362 -0.829321 -0.829285 -0.829253 -0.829227 -0.829206 
226 -0.801055 -0.800955 -0.800856 -0.800759 -0.800665 -0.800575 -0.800488 -0.800407 -0.800332 -0.800262 
227 -0.891853 -0.891769 -0.891667 -0.891546 -0.891406 -0.891248 -0.891069 -0.890872 -0.890655 -0.89042 
228 -0.82045 -0.820372 -0.820298 -0.820228 -0.820163 -0.820104 -0.82005 -0.820002 -0.81996 -0.819925 
229 -0.85014 -0.850149 -0.85016 -0.850171 -0.850183 -0.850196 -0.85021 -0.850224 -0.850239 -0.850256 
230 -0.85014 -0.850149 -0.85016 -0.850171 -0.850183 -0.850196 -0.85021 -0.850224 -0.850239 -0.850256 
231 -0.85014 -0.850149 -0.850159 -0.850171 -0.850183 -0.850196 -0.85021 -0.850224 -0.850239 -0.850255 
232 -1.10133 -1.10111 -1.10086 -1.10058 -1.10026 -1.09992 -1.09954 -1.09914 -1.09871 -1.09825 
233 -0.850136 -0.850145 -0.850155 -0.850167 -0.850179 -0.850192 -0.850205 -0.85022 -0.850235 -0.850251 
234 -0.98383 -0.983792 -0.983737 -0.983667 -0.983581 -0.983479 -0.983362 -0.983229 -0.983082 -0.982921 
235 -0.647125 -0.647096 -0.647051 -0.646989 -0.646908 -0.646807 -0.646683 -0.646538 -0.646369 -0.646176 
236 -0.910781 -0.910777 -0.910764 -0.910742 -0.910711 -0.910671 -0.910624 -0.91057 -0.910509 -0.910442 
237 -1.11554 -1.11537 -1.11517 -1.11495 -1.1147 -1.11442 -1.11411 -1.11378 -1.11343 -1.11304 
238 -0.850755 -0.850755 -0.850756 -0.850758 -0.850761 -0.850766 -0.850771 -0.850777 -0.850784 -0.850792 
239 -0.704919 -0.70496 -0.704989 -0.705005 -0.705006 -0.704991 -0.704956 -0.704902 -0.704826 -0.704728 
240 -0.762209 -0.762129 -0.762045 -0.761958 -0.761868 -0.761775 -0.76168 -0.761584 -0.761487 -0.761389 
241 -0.728336 -0.728285 -0.728225 -0.728155 -0.728076 -0.727988 -0.72789 -0.727783 -0.727666 -0.72754 
242 -0.85014 -0.850149 -0.85016 -0.850171 -0.850183 -0.850196 -0.85021 -0.850224 -0.85024 -0.850256 
243 -0.988788 -0.988761 -0.988721 -0.988668 -0.988603 -0.988526 -0.988436 -0.988335 -0.988222 -0.9881 
244 -1.12257 -1.12243 -1.12227 -1.12209 -1.12189 -1.12167 -1.12143 -1.12116 -1.12089 -1.12059 
245 -0.518732 -0.518654 -0.518569 -0.518476 -0.518374 -0.518262 -0.518141 -0.518009 -0.517865 -0.51771 
246 -1.05157 -1.05152 -1.05145 -1.05137 -1.05127 -1.05115 -1.05102 -1.05087 -1.0507 -1.05052 
247 -0.851437 -0.851458 -0.851477 -0.851492 -0.851505 -0.851514 -0.851521 -0.851524 -0.851524 -0.851521 
248 -0.85014 -0.850149 -0.85016 -0.850171 -0.850183 -0.850196 -0.85021 -0.850224 -0.850239 -0.850256 
249 -0.607191 -0.607095 -0.606988 -0.606871 -0.606742 -0.606602 -0.60645 -0.606286 -0.606109 -0.605921 
250 -0.812986 -0.812872 -0.812761 -0.812655 -0.812553 -0.812458 -0.81237 -0.81229 -0.812219 -0.812158 
251 -0.768136 -0.768013 -0.76789 -0.767769 -0.767651 -0.767537 -0.767428 -0.767325 -0.767229 -0.767142 
252 -0.73755 -0.737529 -0.737501 -0.737467 -0.737425 -0.737376 -0.737319 -0.737255 -0.737184 -0.737106 
253 -0.85014 -0.850149 -0.850159 -0.850171 -0.850183 -0.850196 -0.85021 -0.850224 -0.850239 -0.850255 
254 -0.881061 -0.881044 -0.881031 -0.88102 -0.881012 -0.881008 -0.881006 -0.881008 -0.881013 -0.881021 
255 -0.85019 -0.850197 -0.850206 -0.850216 -0.850226 -0.850238 -0.85025 -0.850263 -0.850277 -0.850292 
256 -0.854665 -0.854716 -0.85477 -0.854828 -0.854889 -0.854954 -0.855022 -0.855093 -0.855168 -0.855246 
257 -1.04591 -1.04593 -1.04594 -1.04594 -1.04594 -1.04592 -1.0459 -1.04588 -1.04584 -1.0458 
258 -0.822242 -0.822156 -0.822077 -0.822005 -0.821939 -0.82188 -0.821829 -0.821785 -0.821749 -0.821721 
259 -0.86915 -0.869188 -0.869231 -0.869278 -0.869329 -0.869385 -0.869444 -0.869506 -0.869572 -0.869641 
260 -0.626436 -0.626338 -0.626238 -0.626136 -0.62603 -0.625922 -0.62581 -0.625696 -0.625578 -0.625458 
261 -0.994517 -0.994509 -0.994492 -0.994464 -0.994427 -0.99438 -0.994325 -0.99426 -0.994187 -0.994107 
262 -1.02641 -1.02641 -1.02639 -1.02637 -1.02635 -1.02631 -1.02627 -1.02623 -1.02617 -1.02611 
263 -0.850137 -0.850146 -0.850156 -0.850167 -0.850179 -0.850191 -0.850205 -0.850219 -0.850234 -0.85025 
264 -0.83315 -0.833113 -0.833081 -0.833054 -0.833032 -0.833015 -0.833004 -0.832998 -0.832997 -0.833002 
265 -0.709728 -0.709686 -0.709639 -0.709588 -0.709532 -0.709472 -0.709408 -0.709339 -0.709267 -0.709192 
266 -0.669356 -0.669314 -0.669271 -0.669225 -0.669176 -0.669123 -0.669067 -0.669008 -0.668944 -0.668877 
267 -0.909548 -0.90953 -0.909507 -0.90948 -0.909449 -0.909414 -0.909376 -0.909335 -0.909291 -0.909246 
268 -0.840615 -0.840613 -0.840619 -0.840632 -0.840653 -0.840682 -0.840719 -0.840763 -0.840816 -0.840876 
269 -0.85014 -0.850149 -0.85016 -0.850171 -0.850183 -0.850196 -0.85021 -0.850224 -0.85024 -0.850256 
270 -1.00615 -1.00613 -1.00611 -1.00609 -1.00606 -1.00603 -1.006 -1.00596 -1.00593 -1.00589 
271 -0.966628 -0.966613 -0.966591 -0.966562 -0.966526 -0.966483 -0.966434 -0.966379 -0.96632 -0.966256 
272 -0.68969 -0.689601 -0.689508 -0.689411 -0.689311 -0.689209 -0.689106 -0.689002 -0.688897 -0.688793 
273 -0.772954 -0.772826 -0.772693 -0.772556 -0.772418 -0.772278 -0.77214 -0.772005 -0.771874 -0.771749 
274 -0.732926 -0.73289 -0.732852 -0.732811 -0.732768 -0.732724 -0.732677 -0.73263 -0.732581 -0.732532 
275 -0.849048 -0.849055 -0.849063 -0.849073 -0.849084 -0.849096 -0.849109 -0.849123 -0.849139 -0.849155 
276 -0.977735 -0.977723 -0.977708 -0.977689 -0.977666 -0.97764 -0.977612 -0.97758 -0.977547 -0.977512 
277 -0.85014 -0.850149 -0.85016 -0.850171 -0.850183 -0.850196 -0.85021 -0.850224 -0.850239 -0.850256 
278 -0.713292 -0.713237 -0.713184 -0.713133 -0.713085 -0.713039 -0.712995 -0.712954 -0.712916 -0.71288 
279 -0.763184 -0.763114 -0.763042 -0.762969 -0.762896 -0.762824 -0.762754 -0.762686 -0.762622 -0.762562 
280 -0.936676 -0.936667 -0.936654 -0.936637 -0.936615 -0.93659 -0.936561 -0.93653 -0.936496 -0.936459 
281 -0.821644 -0.821577 -0.821503 -0.821422 -0.821333 -0.821238 -0.821137 -0.821031 -0.820921 -0.820808 
282 -0.938937 -0.938921 -0.938906 -0.938891 -0.938877 -0.938864 -0.938851 -0.93884 -0.93883 -0.938821 
283 -0.893967 -0.893954 -0.893941 -0.893929 -0.893919 -0.893909 -0.893902 -0.893897 -0.893894 -0.893894 
284 -0.79822 -0.798113 -0.797999 -0.797878 -0.797752 -0.797621 -0.797487 -0.797351 -0.797215 -0.797079 
285 -0.74518 -0.745174 -0.745148 -0.745103 -0.745039 -0.744957 -0.744858 -0.744745 -0.744617 -0.744478 
286 -0.85014 -0.850149 -0.85016 -0.850171 -0.850183 -0.850196 -0.85021 -0.850224 -0.850239 -0.850256 
287 -0.777744 -0.777783 -0.777818 -0.777849 -0.777875 -0.777897 -0.777913 -0.777925 -0.777931 -0.777932 
288 -0.926024 -0.926015 -0.926006 -0.925997 -0.925988 -0.925979 -0.92597 -0.925962 -0.925955 -0.925948 
289 -0.827716 -0.827706 -0.827696 -0.827685 -0.827673 -0.827659 -0.827643 -0.827625 -0.827604 -0.82758 
290 -0.915923 -0.915903 -0.915884 -0.915864 -0.915844 -0.915824 -0.915805 -0.915788 -0.915772 -0.915757 