VARIABLES = "Cell" "Mode 0" "Mode 1" "Mode 2" "Mode 3" "Mode 4" "Mode 5" "Mode 6" "Mode 7" "Mode 8" "Mode 9" 
ZONE T = Iteration27
0 -0.857092 -0.857227 -0.857342 -0.857452 -0.85756 -0.85764 -0.857667 -0.857671 -0.857724 -0.857866 
1 -0.857092 -0.857227 -0.857342 -0.857452 -0.85756 -0.85764 -0.857667 -0.857671 -0.857724 -0.857866 
2 -0.857092 -0.857227 -0.857342 -0.857452 -0.85756 -0.85764 -0.857667 -0.857671 -0.857724 -0.857866 
3 -0.857092 -0.857227 -0.857342 -0.857452 -0.85756 -0.85764 -0.857667 -0.857671 -0.857724 -0.857866 
4 -0.857092 -0.857227 -0.857342 -0.857452 -0.85756 -0.85764 -0.857667 -0.857671 -0.857724 -0.857866 
5 -0.857092 -0.857227 -0.857342 -0.857452 -0.85756 -0.85764 -0.857667 -0.857671 -0.857724 -0.857866 
6 -0.857092 -0.857227 -0.857342 -0.857452 -0.85756 -0.85764 -0.857667 -0.857671 -0.857724 -0.857866 
7 -0.857092 -0.857227 -0.857342 -0.857452 -0.85756 -0.85764 -0.857667 -0.857671 -0.857724 -0.857866 
8 -0.857092 -0.857227 -0.857342 -0.857452 -0.85756 -0.85764 -0.857667 -0.857671 -0.857724 -0.857866 
9 -0.857092 -0.857227 -0.857342 -0.857452 -0.85756 -0.85764 -0.857667 -0.857671 -0.857724 -0.857866 
10 -0.857092 -0.857227 -0.857342 -0.857452 -0.85756 -0.85764 -0.857667 -0.857671 -0.857724 -0.857866 
11 -0.857092 -0.857227 -0.857342 -0.857452 -0.85756 -0.85764 -0.857667 -0.857671 -0.857724 -0.857866 
12 -0.857092 -0.857227 -0.857342 -0.857452 -0.85756 -0.85764 -0.857667 -0.857671 -0.857724 -0.857866 
13 -0.857092 -0.857227 -0.857342 -0.857452 -0.85756 -0.85764 -0.857667 -0.857671 -0.857724 -0.857866 
14 -0.857092 -0.857227 -0.857342 -0.857452 -0.85756 -0.85764 -0.857667 -0.857671 -0.857724 -0.857866 
15 -0.857092 -0.857227 -0.857342 -0.857452 -0.85756 -0.85764 -0.857667 -0.857671 -0.857724 -0.857866 
16 -0.857092 -0.857227 -0.857342 -0.857452 -0.85756 -0.85764 -0.857667 -0.857671 -0.857724 -0.857866 
17 -0.857092 -0.857227 -0.857342 -0.857452 -0.85756 -0.85764 -0.857667 -0.857671 -0.857724 -0.857866 
18 -0.857092 -0.857227 -0.857342 -0.857452 -0.85756 -0.85764 -0.857667 -0.857671 -0.857724 -0.857866 
19 -0.857092 -0.857227 -0.857342 -0.857452 -0.85756 -0.85764 -0.857667 -0.857671 -0.857724 -0.857866 
20 -0.857092 -0.857227 -0.857342 -0.857452 -0.85756 -0.85764 -0.857667 -0.857671 -0.857724 -0.857866 
21 -0.857092 -0.857227 -0.857342 -0.857452 -0.85756 -0.85764 -0.857667 -0.857671 -0.857724 -0.857866 
22 -0.857092 -0.857227 -0.857342 -0.857452 -0.85756 -0.85764 -0.857667 -0.857671 -0.857724 -0.857866 
23 -0.857092 -0.857227 -0.857342 -0.857452 -0.85756 -0.85764 -0.857667 -0.857671 -0.857724 -0.857866 
24 -0.857092 -0.857227 -0.857342 -0.857452 -0.85756 -0.85764 -0.857667 -0.857671 -0.857724 -0.857866 
25 -0.857092 -0.857227 -0.857342 -0.857452 -0.85756 -0.85764 -0.857667 -0.857671 -0.857724 -0.857866 
26 -0.857092 -0.857227 -0.857342 -0.857452 -0.85756 -0.85764 -0.857667 -0.857671 -0.857724 -0.857866 
27 -0.857092 -0.857227 -0.857342 -0.857452 -0.85756 -0.85764 -0.857667 -0.857671 -0.857724 -0.857866 
28 -0.857092 -0.857227 -0.857342 -0.857452 -0.85756 -0.85764 -0.857667 -0.857671 -0.857724 -0.857866 
29 -0.857092 -0.857227 -0.857342 -0.857452 -0.85756 -0.85764 -0.857667 -0.857671 -0.857724 -0.857866 
30 -0.857092 -0.857227 -0.857342 -0.857452 -0.85756 -0.85764 -0.857667 -0.857671 -0.857724 -0.857866 
31 -0.857092 -0.857227 -0.857342 -0.857452 -0.85756 -0.85764 -0.857667 -0.857671 -0.857724 -0.857866 
32 -0.857092 -0.857227 -0.857342 -0.857452 -0.85756 -0.85764 -0.857667 -0.857671 -0.857724 -0.857866 
33 -0.857092 -0.857227 -0.857342 -0.857452 -0.85756 -0.85764 -0.857667 -0.857671 -0.857724 -0.857866 
34 -0.857092 -0.857227 -0.857342 -0.857452 -0.85756 -0.85764 -0.857667 -0.857671 -0.857724 -0.857866 
35 -0.857092 -0.857227 -0.857342 -0.857452 -0.85756 -0.85764 -0.857667 -0.857671 -0.857724 -0.857866 
36 -0.857092 -0.857227 -0.857342 -0.857452 -0.85756 -0.85764 -0.857667 -0.857671 -0.857724 -0.857866 
37 -0.857092 -0.857227 -0.857342 -0.857452 -0.85756 -0.85764 -0.857667 -0.857671 -0.857724 -0.857866 
38 -0.857092 -0.857227 -0.857342 -0.857452 -0.85756 -0.85764 -0.857667 -0.857671 -0.857724 -0.857866 
39 -0.857092 -0.857227 -0.857342 -0.857452 -0.85756 -0.85764 -0.857667 -0.857671 -0.857724 -0.857866 
40 -0.857092 -0.857227 -0.857342 -0.857452 -0.85756 -0.85764 -0.857667 -0.857671 -0.857724 -0.857866 
41 -0.857092 -0.857227 -0.857342 -0.857452 -0.85756 -0.85764 -0.857667 -0.857671 -0.857724 -0.857866 
42 -0.857092 -0.857227 -0.857342 -0.857452 -0.85756 -0.85764 -0.857667 -0.857671 -0.857724 -0.857866 
43 -0.857092 -0.857227 -0.857342 -0.857452 -0.85756 -0.85764 -0.857667 -0.857671 -0.857724 -0.857866 
44 -0.857092 -0.857227 -0.857342 -0.857452 -0.85756 -0.85764 -0.857667 -0.857671 -0.857724 -0.857866 
45 -0.857092 -0.857227 -0.857342 -0.857452 -0.85756 -0.85764 -0.857667 -0.857671 -0.857724 -0.857866 
46 -0.857092 -0.857227 -0.857342 -0.857452 -0.85756 -0.85764 -0.857667 -0.857671 -0.857724 -0.857866 
47 -0.857092 -0.857227 -0.857342 -0.857452 -0.85756 -0.85764 -0.857667 -0.857671 -0.857724 -0.857866 
48 -0.857092 -0.857227 -0.857342 -0.857452 -0.85756 -0.85764 -0.857667 -0.857671 -0.857724 -0.857866 
49 -0.857092 -0.857227 -0.857342 -0.857452 -0.85756 -0.85764 -0.857667 -0.857671 -0.857724 -0.857866 
50 -0.857092 -0.857227 -0.857342 -0.857452 -0.85756 -0.85764 -0.857667 -0.857671 -0.857724 -0.857866 
51 -0.857092 -0.857227 -0.857342 -0.857452 -0.85756 -0.85764 -0.857667 -0.857671 -0.857724 -0.857866 
52 -0.857092 -0.857227 -0.857342 -0.857452 -0.85756 -0.85764 -0.857667 -0.857671 -0.857724 -0.857866 
53 -0.857092 -0.857227 -0.857342 -0.857452 -0.85756 -0.85764 -0.857667 -0.857671 -0.857724 -0.857866 
54 -0.857092 -0.857227 -0.857342 -0.857452 -0.85756 -0.85764 -0.857667 -0.857671 -0.857724 -0.857866 
55 -0.857092 -0.857227 -0.857342 -0.857452 -0.85756 -0.85764 -0.857667 -0.857671 -0.857724 -0.857866 
56 -0.857092 -0.857227 -0.857342 -0.857452 -0.85756 -0.85764 -0.857667 -0.857671 -0.857724 -0.857866 
57 -0.857092 -0.857227 -0.857342 -0.857452 -0.85756 -0.85764 -0.857667 -0.857671 -0.857724 -0.857866 
58 -0.857092 -0.857227 -0.857342 -0.857452 -0.85756 -0.85764 -0.857667 -0.857671 -0.857724 -0.857866 
59 -0.857092 -0.857227 -0.857342 -0.857452 -0.85756 -0.85764 -0.857667 -0.857671 -0.857724 -0.857866 
60 -0.857092 -0.857227 -0.857342 -0.857452 -0.85756 -0.85764 -0.857667 -0.857671 -0.857724 -0.857866 
61 -0.857092 -0.857227 -0.857342 -0.857452 -0.85756 -0.85764 -0.857667 -0.857671 -0.857724 -0.857866 
62 -0.857092 -0.857227 -0.857342 -0.857452 -0.85756 -0.85764 -0.857667 -0.857671 -0.857724 -0.857866 
63 -0.857092 -0.857227 -0.857342 -0.857452 -0.85756 -0.85764 -0.857667 -0.857671 -0.857724 -0.857866 
64 -0.857092 -0.857227 -0.857342 -0.857452 -0.85756 -0.85764 -0.857667 -0.857671 -0.857724 -0.857866 
65 -0.857092 -0.857227 -0.857342 -0.857452 -0.85756 -0.85764 -0.857667 -0.857671 -0.857724 -0.857866 
66 -0.857092 -0.857227 -0.857342 -0.857452 -0.85756 -0.85764 -0.857667 -0.857671 -0.857724 -0.857866 
67 -0.857092 -0.857227 -0.857342 -0.857452 -0.85756 -0.85764 -0.857667 -0.857671 -0.857724 -0.857866 
68 -0.857092 -0.857227 -0.857342 -0.857452 -0.85756 -0.85764 -0.857667 -0.857671 -0.857724 -0.857866 
69 -0.857092 -0.857227 -0.857342 -0.857452 -0.85756 -0.85764 -0.857667 -0.857671 -0.857724 -0.857866 
70 -0.857092 -0.857227 -0.857342 -0.857452 -0.85756 -0.85764 -0.857667 -0.857671 -0.857724 -0.857866 
71 -0.857092 -0.857227 -0.857342 -0.857452 -0.85756 -0.85764 -0.857667 -0.857671 -0.857724 -0.857866 
72 -0.857092 -0.857227 -0.857342 -0.857452 -0.85756 -0.85764 -0.857667 -0.857671 -0.857724 -0.857866 
73 -0.857092 -0.857227 -0.857342 -0.857452 -0.85756 -0.85764 -0.857667 -0.857671 -0.857724 -0.857866 
74 -0.857092 -0.857227 -0.857342 -0.857452 -0.85756 -0.85764 -0.857667 -0.857671 -0.857724 -0.857866 
75 -0.857092 -0.857227 -0.857342 -0.857452 -0.85756 -0.85764 -0.857667 -0.857671 -0.857724 -0.857866 
76 -0.857092 -0.857227 -0.857342 -0.857452 -0.85756 -0.85764 -0.857667 -0.857671 -0.857724 -0.857866 
77 -0.857092 -0.857227 -0.857342 -0.857452 -0.85756 -0.85764 -0.857667 -0.857671 -0.857724 -0.857866 
78 -0.857092 -0.857227 -0.857342 -0.857452 -0.85756 -0.85764 -0.857667 -0.857671 -0.857724 -0.857866 
79 -0.857092 -0.857227 -0.857342 -0.857452 -0.85756 -0.85764 -0.857667 -0.857671 -0.857724 -0.857866 
80 -0.857092 -0.857227 -0.857342 -0.857452 -0.85756 -0.85764 -0.857667 -0.857671 -0.857724 -0.857866 
81 -0.857092 -0.857227 -0.857342 -0.857452 -0.85756 -0.85764 -0.857667 -0.857671 -0.857724 -0.857866 
82 -0.857092 -0.857227 -0.857342 -0.857452 -0.85756 -0.85764 -0.857667 -0.857671 -0.857724 -0.857866 
83 -0.857092 -0.857227 -0.857342 -0.857452 -0.85756 -0.85764 -0.857667 -0.857671 -0.857724 -0.857866 
84 -0.857092 -0.857227 -0.857342 -0.857452 -0.85756 -0.85764 -0.857667 -0.857671 -0.857724 -0.857866 
85 -0.857092 -0.857227 -0.857342 -0.857452 -0.85756 -0.85764 -0.857667 -0.857671 -0.857724 -0.857866 
86 -0.857092 -0.857227 -0.857342 -0.857452 -0.85756 -0.85764 -0.857667 -0.857671 -0.857724 -0.857866 
87 -0.857092 -0.857227 -0.857342 -0.857452 -0.85756 -0.85764 -0.857667 -0.857671 -0.857724 -0.857866 
88 -0.857092 -0.857227 -0.857342 -0.857452 -0.85756 -0.85764 -0.857667 -0.857671 -0.857724 -0.857866 
89 -0.857092 -0.857227 -0.857342 -0.857452 -0.85756 -0.85764 -0.857667 -0.857671 -0.857724 -0.857866 
90 -0.857092 -0.857227 -0.857342 -0.857452 -0.85756 -0.85764 -0.857667 -0.857671 -0.857724 -0.857866 
91 -0.857092 -0.857227 -0.857342 -0.857452 -0.85756 -0.85764 -0.857667 -0.857671 -0.857724 -0.857866 
92 -0.857092 -0.857227 -0.857342 -0.857452 -0.85756 -0.85764 -0.857667 -0.857671 -0.857724 -0.857866 
93 -0.857092 -0.857227 -0.857342 -0.857452 -0.85756 -0.85764 -0.857667 -0.857671 -0.857724 -0.857866 
94 -0.857092 -0.857227 -0.857342 -0.857452 -0.85756 -0.85764 -0.857667 -0.857671 -0.857724 -0.857866 
95 -0.857092 -0.857227 -0.857342 -0.857452 -0.85756 -0.85764 -0.857667 -0.857671 -0.857724 -0.857866 
96 -0.857092 -0.857227 -0.857342 -0.857452 -0.85756 -0.85764 -0.857667 -0.857671 -0.857724 -0.857866 
97 -0.857092 -0.857227 -0.857342 -0.857452 -0.85756 -0.85764 -0.857667 -0.857671 -0.857724 -0.857866 
98 -0.857092 -0.857227 -0.857342 -0.857452 -0.85756 -0.85764 -0.857667 -0.857671 -0.857724 -0.857866 
99 -0.857092 -0.857227 -0.857342 -0.857452 -0.85756 -0.85764 -0.857667 -0.857671 -0.857724 -0.857866 
100 -0.857092 -0.857227 -0.857342 -0.857452 -0.85756 -0.85764 -0.857667 -0.857671 -0.857724 -0.857866 
101 -0.857092 -0.857227 -0.857342 -0.857452 -0.85756 -0.85764 -0.857667 -0.857671 -0.857724 -0.857866 
102 -0.857092 -0.857227 -0.857342 -0.857452 -0.85756 -0.85764 -0.857667 -0.857671 -0.857724 -0.857866 
103 -0.857092 -0.857227 -0.857342 -0.857452 -0.85756 -0.85764 -0.857667 -0.857671 -0.857724 -0.857866 
104 -0.857092 -0.857227 -0.857342 -0.857452 -0.85756 -0.85764 -0.857667 -0.857671 -0.857724 -0.857866 
105 -0.857092 -0.857227 -0.857342 -0.857452 -0.85756 -0.85764 -0.857667 -0.857671 -0.857724 -0.857866 
106 -0.857092 -0.857227 -0.857342 -0.857452 -0.85756 -0.85764 -0.857667 -0.857671 -0.857724 -0.857866 
107 -0.857092 -0.857227 -0.857342 -0.857452 -0.85756 -0.85764 -0.857667 -0.857671 -0.857724 -0.857866 
108 -0.857092 -0.857227 -0.857342 -0.857452 -0.85756 -0.85764 -0.857667 -0.857671 -0.857724 -0.857866 
109 -0.857092 -0.857227 -0.857342 -0.857452 -0.85756 -0.85764 -0.857667 -0.857671 -0.857724 -0.857866 
110 -0.857092 -0.857227 -0.857342 -0.857452 -0.85756 -0.85764 -0.857667 -0.857671 -0.857724 -0.857866 
111 -0.857092 -0.857227 -0.857342 -0.857452 -0.85756 -0.85764 -0.857667 -0.857671 -0.857724 -0.857866 
112 -0.857092 -0.857227 -0.857342 -0.857452 -0.85756 -0.85764 -0.857667 -0.857671 -0.857724 -0.857866 
113 -0.857092 -0.857227 -0.857342 -0.857452 -0.85756 -0.85764 -0.857667 -0.857671 -0.857724 -0.857866 
114 -0.857092 -0.857227 -0.857342 -0.857452 -0.85756 -0.85764 -0.857667 -0.857671 -0.857724 -0.857866 
115 -0.857092 -0.857227 -0.857342 -0.857452 -0.85756 -0.85764 -0.857667 -0.857671 -0.857724 -0.857866 
116 -0.857092 -0.857227 -0.857342 -0.857452 -0.85756 -0.85764 -0.857667 -0.857671 -0.857724 -0.857866 
117 -0.857092 -0.857227 -0.857342 -0.857452 -0.85756 -0.85764 -0.857667 -0.857671 -0.857724 -0.857866 
118 -0.857092 -0.857227 -0.857342 -0.857452 -0.85756 -0.85764 -0.857667 -0.857671 -0.857724 -0.857866 
119 -0.857092 -0.857227 -0.857342 -0.857452 -0.85756 -0.85764 -0.857667 -0.857671 -0.857724 -0.857866 
120 -0.857092 -0.857227 -0.857342 -0.857452 -0.85756 -0.85764 -0.857667 -0.857671 -0.857724 -0.857866 
121 -0.857092 -0.857227 -0.857342 -0.857451 -0.85756 -0.85764 -0.857667 -0.857671 -0.857724 -0.857866 
122 -0.857092 -0.857227 -0.857342 -0.857452 -0.85756 -0.85764 -0.857667 -0.857671 -0.857724 -0.857866 
123 -0.857092 -0.857227 -0.857342 -0.857451 -0.85756 -0.85764 -0.857667 -0.857671 -0.857724 -0.857866 
124 -0.857092 -0.857227 -0.857342 -0.857452 -0.85756 -0.85764 -0.857667 -0.857671 -0.857724 -0.857866 
125 -0.857091 -0.857227 -0.857341 -0.857451 -0.85756 -0.85764 -0.857667 -0.857671 -0.857724 -0.857866 
126 -0.857092 -0.857227 -0.857342 -0.857452 -0.85756 -0.85764 -0.857667 -0.857671 -0.857724 -0.857866 
127 -0.857092 -0.857228 -0.857342 -0.857452 -0.85756 -0.85764 -0.857667 -0.857671 -0.857725 -0.857866 
128 -0.857092 -0.857227 -0.857342 -0.857451 -0.85756 -0.85764 -0.857667 -0.857671 -0.857724 -0.857866 
129 -0.857092 -0.857228 -0.857342 -0.857452 -0.85756 -0.85764 -0.857667 -0.857671 -0.857724 -0.857866 
130 -0.857092 -0.857227 -0.857341 -0.857451 -0.85756 -0.85764 -0.857667 -0.857671 -0.857724 -0.857866 
131 -0.857092 -0.857227 -0.857341 -0.857451 -0.85756 -0.85764 -0.857667 -0.857671 -0.857724 -0.857866 
132 -0.857092 -0.857227 -0.857341 -0.857451 -0.85756 -0.85764 -0.857667 -0.857671 -0.857724 -0.857866 
133 -0.857094 -0.857229 -0.857344 -0.857453 -0.857562 -0.857641 -0.857668 -0.857672 -0.857725 -0.857867 
134 -0.857092 -0.857227 -0.857341 -0.857451 -0.85756 -0.857639 -0.857666 -0.857671 -0.857724 -0.857866 
135 -0.857093 -0.857229 -0.857343 -0.857452 -0.857561 -0.857641 -0.857667 -0.857671 -0.857725 -0.857867 
136 -0.857092 -0.857227 -0.857342 -0.857452 -0.85756 -0.85764 -0.857667 -0.857671 -0.857724 -0.857866 
137 -0.857092 -0.857227 -0.857342 -0.857452 -0.85756 -0.85764 -0.857667 -0.857671 -0.857724 -0.857866 
138 -0.857103 -0.85723 -0.857338 -0.857444 -0.857551 -0.85763 -0.857657 -0.857662 -0.857717 -0.857861 
139 -0.857066 -0.857209 -0.857331 -0.857446 -0.857559 -0.857642 -0.85767 -0.857675 -0.857729 -0.85787 
140 -0.857092 -0.857227 -0.857342 -0.857452 -0.85756 -0.85764 -0.857667 -0.857671 -0.857724 -0.857866 
141 -0.857088 -0.857223 -0.857338 -0.857448 -0.857557 -0.857638 -0.857665 -0.85767 -0.857724 -0.857866 
142 -0.857102 -0.857236 -0.857349 -0.857457 -0.857564 -0.857643 -0.857669 -0.857672 -0.857725 -0.857866 
143 -0.857091 -0.857227 -0.857341 -0.857451 -0.85756 -0.85764 -0.857667 -0.857671 -0.857725 -0.857866 
144 -0.857091 -0.857245 -0.857372 -0.857489 -0.8576 -0.857679 -0.857702 -0.8577 -0.857747 -0.857882 
145 -0.857099 -0.857233 -0.857346 -0.857455 -0.857563 -0.857642 -0.857668 -0.857672 -0.857725 -0.857867 
146 -0.857087 -0.857213 -0.857321 -0.857428 -0.857536 -0.857617 -0.857647 -0.857654 -0.857712 -0.857857 
147 -0.857092 -0.857227 -0.857342 -0.857452 -0.85756 -0.85764 -0.857667 -0.857671 -0.857724 -0.857866 
148 -0.857091 -0.857226 -0.857341 -0.857451 -0.857559 -0.857639 -0.857666 -0.857671 -0.857724 -0.857866 
149 -0.857125 -0.857248 -0.857352 -0.857454 -0.857557 -0.857634 -0.857659 -0.857663 -0.857717 -0.85786 
150 -0.857081 -0.857218 -0.857333 -0.857445 -0.857555 -0.857636 -0.857664 -0.857669 -0.857724 -0.857866 
151 -0.856995 -0.857131 -0.857252 -0.857372 -0.857494 -0.857587 -0.857628 -0.857645 -0.857709 -0.85786 
152 -0.857092 -0.857227 -0.857342 -0.857452 -0.85756 -0.85764 -0.857667 -0.857671 -0.857724 -0.857866 
153 -0.857352 -0.857454 -0.857531 -0.857602 -0.857673 -0.857719 -0.857717 -0.857698 -0.857734 -0.857864 
154 -0.856738 -0.856905 -0.857061 -0.857218 -0.857376 -0.857503 -0.857574 -0.857616 -0.8577 -0.857864 
155 -0.856939 -0.85709 -0.857223 -0.857352 -0.857481 -0.857579 -0.857623 -0.857641 -0.857706 -0.857856 
156 -0.856682 -0.856995 -0.857256 -0.857479 -0.85767 -0.857801 -0.857853 -0.857861 -0.857902 -0.85802 
157 -0.857315 -0.857428 -0.857513 -0.85759 -0.857665 -0.857714 -0.857713 -0.857694 -0.85773 -0.85786 
158 -0.857099 -0.857244 -0.857364 -0.857477 -0.857586 -0.857664 -0.857688 -0.857688 -0.857737 -0.857875 
159 -0.857092 -0.857227 -0.857342 -0.857452 -0.85756 -0.85764 -0.857667 -0.857671 -0.857724 -0.857866 
160 -0.857103 -0.857237 -0.85735 -0.857458 -0.857565 -0.857644 -0.85767 -0.857674 -0.857727 -0.857868 
161 -0.859819 -0.859989 -0.860023 -0.85995 -0.859789 -0.859535 -0.859188 -0.858804 -0.858482 -0.858282 
162 -0.857416 -0.85742 -0.857406 -0.857398 -0.857409 -0.857416 -0.857399 -0.857387 -0.857452 -0.857628 
163 -0.857151 -0.857048 -0.856981 -0.856968 -0.857011 -0.857074 -0.857126 -0.857187 -0.857317 -0.857546 
164 -0.853239 -0.853837 -0.854476 -0.855148 -0.855825 -0.856452 -0.856978 -0.857409 -0.857804 -0.858192 
165 -0.85699 -0.857238 -0.857433 -0.857594 -0.857729 -0.857813 -0.857829 -0.857811 -0.857837 -0.857949 
166 -0.858784 -0.858574 -0.858355 -0.858154 -0.857986 -0.857832 -0.857671 -0.857536 -0.857497 -0.85759 
167 -0.856017 -0.85626 -0.85652 -0.856799 -0.857087 -0.857342 -0.857528 -0.857665 -0.85782 -0.85803 
168 -0.858077 -0.857942 -0.857782 -0.857631 -0.857506 -0.857393 -0.857275 -0.857186 -0.8572 -0.857349 
169 -0.857268 -0.857376 -0.85746 -0.857539 -0.85762 -0.857677 -0.857685 -0.857676 -0.857722 -0.85786 
170 -0.85439 -0.854444 -0.854627 -0.854931 -0.85533 -0.855765 -0.856181 -0.856577 -0.856997 -0.85746 
171 -0.855275 -0.855952 -0.856557 -0.857088 -0.857536 -0.857867 -0.858059 -0.858148 -0.858217 -0.85832 
172 -0.858835 -0.858457 -0.858114 -0.857838 -0.857642 -0.857502 -0.857389 -0.857325 -0.857368 -0.857543 
173 -0.857092 -0.857227 -0.857342 -0.857452 -0.85756 -0.85764 -0.857667 -0.857671 -0.857724 -0.857866 
174 -0.873559 -0.873112 -0.87231 -0.871159 -0.869681 -0.867901 -0.865884 -0.863768 -0.861743 -0.859957 
175 -0.869809 -0.866491 -0.863312 -0.860412 -0.857907 -0.855859 -0.854301 -0.853283 -0.852861 -0.853026 
176 -0.838867 -0.839131 -0.839615 -0.840387 -0.841496 -0.842946 -0.844705 -0.846748 -0.849052 -0.851545 
177 -0.861556 -0.863246 -0.864515 -0.86535 -0.865747 -0.865703 -0.865241 -0.86446 -0.863516 -0.86254 
178 -0.872527 -0.868858 -0.865241 -0.861847 -0.858825 -0.856275 -0.854261 -0.852857 -0.85213 -0.852071 
179 -0.857092 -0.857227 -0.857342 -0.857452 -0.85756 -0.85764 -0.857667 -0.857671 -0.857724 -0.857866 
180 -0.862365 -0.861564 -0.860272 -0.858483 -0.856234 -0.853613 -0.850792 -0.848042 -0.845677 -0.84395 
181 -0.858992 -0.857906 -0.857034 -0.856396 -0.855987 -0.855763 -0.855676 -0.855724 -0.855944 -0.856339 
182 -0.825525 -0.827604 -0.829948 -0.832571 -0.835455 -0.838524 -0.841673 -0.844822 -0.847927 -0.850911 
183 -0.820716 -0.821183 -0.822292 -0.824113 -0.826656 -0.829843 -0.833542 -0.837611 -0.841908 -0.846227 
184 -0.863676 -0.863403 -0.862911 -0.862269 -0.861539 -0.860751 -0.859939 -0.85918 -0.858583 -0.858211 
185 -0.860684 -0.858079 -0.855921 -0.854265 -0.853123 -0.852452 -0.852187 -0.852293 -0.852762 -0.853544 
186 -0.892758 -0.892842 -0.893131 -0.893566 -0.893976 -0.894094 -0.893642 -0.89245 -0.890475 -0.88771 
187 -0.840235 -0.844576 -0.849034 -0.85346 -0.857656 -0.861387 -0.864444 -0.866722 -0.868219 -0.868962 
188 -0.868537 -0.867675 -0.866352 -0.864684 -0.862944 -0.861471 -0.860551 -0.860356 -0.860973 -0.862468 
189 -0.897109 -0.898288 -0.899477 -0.900687 -0.901824 -0.902647 -0.902855 -0.902238 -0.900726 -0.898282 
190 -0.857093 -0.857228 -0.857342 -0.857452 -0.85756 -0.85764 -0.857667 -0.857671 -0.857724 -0.857866 
191 -0.857092 -0.857227 -0.857342 -0.857452 -0.85756 -0.85764 -0.857667 -0.857671 -0.857724 -0.857866 
192 -0.800963 -0.802006 -0.803683 -0.806119 -0.80919 -0.812436 -0.81527 -0.817358 -0.818798 -0.819844 
193 -0.857092 -0.857227 -0.857342 -0.857452 -0.85756 -0.85764 -0.857667 -0.857671 -0.857724 -0.857866 
194 -0.855732 -0.855944 -0.856167 -0.856411 -0.856668 -0.856904 -0.857086 -0.857237 -0.857422 -0.857677 
195 -0.851682 -0.851577 -0.851102 -0.850362 -0.849616 -0.84914 -0.849111 -0.849596 -0.850568 -0.851889 
196 -0.857015 -0.857167 -0.857298 -0.857422 -0.857543 -0.857632 -0.857666 -0.857674 -0.85773 -0.857872 
197 -0.857092 -0.857227 -0.857342 -0.857451 -0.85756 -0.85764 -0.857667 -0.857671 -0.857724 -0.857866 
198 -0.857092 -0.857227 -0.857342 -0.857452 -0.85756 -0.85764 -0.857667 -0.857671 -0.857724 -0.857866 
199 -0.785846 -0.786662 -0.787139 -0.787155 -0.78674 -0.786159 -0.7859 -0.786548 -0.788585 -0.792244 
200 -0.829278 -0.829637 -0.830391 -0.831611 -0.832999 -0.833953 -0.833997 -0.833192 -0.832015 -0.830743 
201 -0.921332 -0.921719 -0.922087 -0.922308 -0.922244 -0.922009 -0.922053 -0.922838 -0.924288 -0.925527 
202 -0.857092 -0.857227 -0.857342 -0.857452 -0.85756 -0.85764 -0.857667 -0.857671 -0.857724 -0.857866 
203 -0.857022 -0.856806 -0.856681 -0.856646 -0.856687 -0.85676 -0.856827 -0.856904 -0.857053 -0.857303 
204 -0.857101 -0.857236 -0.85735 -0.857458 -0.857566 -0.857644 -0.85767 -0.857673 -0.857726 -0.857867 
205 -0.919579 -0.920954 -0.921795 -0.921925 -0.921167 -0.919347 -0.916358 -0.912258 -0.907279 -0.901702 
206 -0.857092 -0.857227 -0.857342 -0.857452 -0.85756 -0.85764 -0.857667 -0.857671 -0.857724 -0.857866 
207 -0.777623 -0.778139 -0.778869 -0.780191 -0.782232 -0.784442 -0.785734 -0.785224 -0.782933 -0.779772 
208 -0.85936 -0.858434 -0.856961 -0.855158 -0.853367 -0.851619 -0.84948 -0.846544 -0.843255 -0.841205 
209 -0.91027 -0.90998 -0.909069 -0.90747 -0.905141 -0.90206 -0.898261 -0.893876 -0.889105 -0.884126 
210 -0.924785 -0.923863 -0.922885 -0.921738 -0.920076 -0.917725 -0.91515 -0.913436 -0.913619 -0.915967 
211 -0.857092 -0.857227 -0.857342 -0.857452 -0.85756 -0.85764 -0.857667 -0.857671 -0.857724 -0.857866 
212 -0.857092 -0.857227 -0.857342 -0.857452 -0.85756 -0.85764 -0.857667 -0.857671 -0.857724 -0.857866 
213 -0.857078 -0.85712 -0.857177 -0.857261 -0.857368 -0.857465 -0.85752 -0.857557 -0.857644 -0.857816 
214 -0.766211 -0.766941 -0.76767 -0.768177 -0.767898 -0.766202 -0.762916 -0.758648 -0.754559 -0.751759 
215 -0.797972 -0.79903 -0.801063 -0.802541 -0.801749 -0.799119 -0.797829 -0.80117 -0.808502 -0.814569 
216 -0.797258 -0.794665 -0.793215 -0.79359 -0.794568 -0.794237 -0.792194 -0.790476 -0.791761 -0.796057 
217 -0.857057 -0.857212 -0.85734 -0.85746 -0.857575 -0.857658 -0.857685 -0.857688 -0.857739 -0.857877 
218 -0.846496 -0.847088 -0.847033 -0.84644 -0.846535 -0.848462 -0.851471 -0.852859 -0.850782 -0.847906 
219 -0.857092 -0.857227 -0.857342 -0.857452 -0.85756 -0.85764 -0.857667 -0.857671 -0.857724 -0.857866 
220 -0.941773 -0.942576 -0.941888 -0.939262 -0.936937 -0.93758 -0.941054 -0.944116 -0.944146 -0.943376 
221 -0.796405 -0.796652 -0.796614 -0.796078 -0.795685 -0.796615 -0.799293 -0.802291 -0.802931 -0.799433 
222 -0.740759 -0.742014 -0.742518 -0.743196 -0.744006 -0.743457 -0.740668 -0.737628 -0.738934 -0.747004 
223 -0.89693 -0.896642 -0.897249 -0.897499 -0.89674 -0.896207 -0.897736 -0.901484 -0.905122 -0.905895 
224 -0.935866 -0.936211 -0.937211 -0.938832 -0.940794 -0.942901 -0.945231 -0.947878 -0.950434 -0.951899 
225 -0.847859 -0.851002 -0.853782 -0.856133 -0.858009 -0.859365 -0.860192 -0.860565 -0.860623 -0.860492 
226 -0.786536 -0.785801 -0.784629 -0.78321 -0.781869 -0.781021 -0.781114 -0.782554 -0.78558 -0.790185 
227 -0.896524 -0.897402 -0.895858 -0.89404 -0.89397 -0.895566 -0.897596 -0.899627 -0.901026 -0.899013 
228 -0.800764 -0.803293 -0.806886 -0.81154 -0.817126 -0.823382 -0.829981 -0.836616 -0.843031 -0.848964 
229 -0.857092 -0.857227 -0.857342 -0.857452 -0.85756 -0.85764 -0.857667 -0.857671 -0.857724 -0.857866 
230 -0.857092 -0.857227 -0.857342 -0.857452 -0.85756 -0.85764 -0.857667 -0.857671 -0.857724 -0.857866 
231 -0.857092 -0.857227 -0.857342 -0.857452 -0.85756 -0.85764 -0.857667 -0.857671 -0.857724 -0.857866 
232 -1.09902 -1.09621 -1.09786 -1.10473 -1.10976 -1.10643 -1.09812 -1.09564 -1.10505 -1.11946 
233 -0.857092 -0.857227 -0.857342 -0.857452 -0.85756 -0.85764 -0.857667 -0.857671 -0.857724 -0.857866 
234 -0.983894 -0.984019 -0.982357 -0.979729 -0.978151 -0.978748 -0.980797 -0.982848 -0.984701 -0.987913 
235 -0.663963 -0.666566 -0.665623 -0.659826 -0.654795 -0.657038 -0.663882 -0.663486 -0.649841 -0.635238 
236 -0.935247 -0.937201 -0.939502 -0.94195 -0.94441 -0.946775 -0.948844 -0.950317 -0.951012 -0.951141 
237 -1.12087 -1.11635 -1.11586 -1.12213 -1.12832 -1.12613 -1.11758 -1.11418 -1.12171 -1.13225 
238 -0.857092 -0.857227 -0.857342 -0.857452 -0.85756 -0.85764 -0.857667 -0.857671 -0.857724 -0.857866 
239 -0.729997 -0.731185 -0.725657 -0.716943 -0.713771 -0.720536 -0.729822 -0.727686 -0.710422 -0.693154 
240 -0.768863 -0.77019 -0.771339 -0.772238 -0.773059 -0.773579 -0.772909 -0.770206 -0.765711 -0.760836 
241 -0.730923 -0.728528 -0.727044 -0.726463 -0.725607 -0.723381 -0.720651 -0.719821 -0.721653 -0.723505 
242 -0.857092 -0.857227 -0.857342 -0.857452 -0.85756 -0.85764 -0.857667 -0.857671 -0.857724 -0.857866 
243 -0.989158 -0.987248 -0.985337 -0.985214 -0.98725 -0.989912 -0.991305 -0.991297 -0.991725 -0.993982 
244 -1.11132 -1.11541 -1.12423 -1.12941 -1.12406 -1.11192 -1.10487 -1.11054 -1.12506 -1.13618 
245 -0.530399 -0.525131 -0.519331 -0.520762 -0.53404 -0.550229 -0.551761 -0.532904 -0.510154 -0.507762 
246 -1.04423 -1.04793 -1.05222 -1.05192 -1.04572 -1.03845 -1.037 -1.04379 -1.05413 -1.0598 
247 -0.85709 -0.857228 -0.857344 -0.857455 -0.857564 -0.857643 -0.85767 -0.857673 -0.857726 -0.857867 
248 -0.857092 -0.857227 -0.857342 -0.857452 -0.85756 -0.85764 -0.857667 -0.857671 -0.857724 -0.857866 
249 -0.607227 -0.601958 -0.598888 -0.601526 -0.608278 -0.611618 -0.605875 -0.59546 -0.592118 -0.601125 
250 -0.778339 -0.776578 -0.775531 -0.775613 -0.777183 -0.780448 -0.785424 -0.791987 -0.799915 -0.808884 
251 -0.769695 -0.77028 -0.770442 -0.770067 -0.768922 -0.766678 -0.763248 -0.759126 -0.755264 -0.752512 
252 -0.742205 -0.742698 -0.743152 -0.742632 -0.741682 -0.74202 -0.744405 -0.747044 -0.746892 -0.742593 
253 -0.857092 -0.857227 -0.857342 -0.857452 -0.85756 -0.85764 -0.857667 -0.857671 -0.857724 -0.857866 
254 -0.914392 -0.912594 -0.910249 -0.90742 -0.904164 -0.900501 -0.896447 -0.89206 -0.887447 -0.882713 
255 -0.857092 -0.857227 -0.857342 -0.857452 -0.85756 -0.85764 -0.857667 -0.857671 -0.857724 -0.857866 
256 -0.856534 -0.856762 -0.856966 -0.85716 -0.857345 -0.857491 -0.857574 -0.857622 -0.857708 -0.857872 
257 -1.04597 -1.05276 -1.05496 -1.04883 -1.03781 -1.03049 -1.03291 -1.04286 -1.05197 -1.05476 
258 -0.815033 -0.821254 -0.827777 -0.834344 -0.840673 -0.846475 -0.851512 -0.855656 -0.85889 -0.861228 
259 -0.890854 -0.888241 -0.88537 -0.882303 -0.879098 -0.875788 -0.872424 -0.869122 -0.866054 -0.863362 
260 -0.621608 -0.615162 -0.615227 -0.621265 -0.625744 -0.623503 -0.619066 -0.622064 -0.635033 -0.649119 
261 -0.996654 -0.995457 -0.993107 -0.991512 -0.992433 -0.995791 -0.999464 -1.00115 -1.00064 -0.999586 
262 -1.0273 -1.02902 -1.02725 -1.02265 -1.0185 -1.0181 -1.02204 -1.02767 -1.0317 -1.03339 
263 -0.857092 -0.857227 -0.857342 -0.857452 -0.85756 -0.85764 -0.857667 -0.857671 -0.857724 -0.857866 
264 -0.857303 -0.858417 -0.859173 -0.859623 -0.859814 -0.859772 -0.859533 -0.859183 -0.858849 -0.858618 
265 -0.699408 -0.699552 -0.702488 -0.704541 -0.703881 -0.702924 -0.70519 -0.710452 -0.714693 -0.714816 
266 -0.661303 -0.659018 -0.66152 -0.665803 -0.66733 -0.665963 -0.666583 -0.672804 -0.681637 -0.687015 
267 -0.930556 -0.93307 -0.935665 -0.937918 -0.939582 -0.940573 -0.940966 -0.941136 -0.941823 -0.943803 
268 -0.858803 -0.858693 -0.858529 -0.858351 -0.858185 -0.858021 -0.857846 -0.857698 -0.857649 -0.857734 
269 -0.857092 -0.857227 -0.857342 -0.857452 -0.85756 -0.85764 -0.857667 -0.857671 -0.857724 -0.857866 
270 -1.01008 -1.00954 -1.00663 -1.00374 -1.00248 -1.00278 -1.00429 -1.00755 -1.01254 -1.01595 
271 -0.970936 -0.96904 -0.968484 -0.970105 -0.973116 -0.975908 -0.977581 -0.978395 -0.978509 -0.976905 
272 -0.694596 -0.698882 -0.701034 -0.699404 -0.697418 -0.699278 -0.704207 -0.706392 -0.701988 -0.694691 
273 -0.775361 -0.775124 -0.774442 -0.773314 -0.771492 -0.768801 -0.765504 -0.762196 -0.75928 -0.756649 
274 -0.723914 -0.725643 -0.725887 -0.724598 -0.724072 -0.726019 -0.729187 -0.730872 -0.730338 -0.729602 
275 -0.857092 -0.857227 -0.857342 -0.857452 -0.85756 -0.85764 -0.857667 -0.857671 -0.857724 -0.857866 
276 -0.984333 -0.982627 -0.980373 -0.979314 -0.980017 -0.981858 -0.984074 -0.986299 -0.987662 -0.986018 
277 -0.857092 -0.857227 -0.857342 -0.857452 -0.85756 -0.85764 -0.857667 -0.857671 -0.857724 -0.857866 
278 -0.713181 -0.716122 -0.717418 -0.716717 -0.716386 -0.718414 -0.721388 -0.721909 -0.719158 -0.716916 
279 -0.76082 -0.760278 -0.759021 -0.758215 -0.758374 -0.758616 -0.757792 -0.755978 -0.754287 -0.753146 
280 -0.943912 -0.944877 -0.94708 -0.949749 -0.951909 -0.952901 -0.952516 -0.95082 -0.948186 -0.945601 
281 -0.791161 -0.788574 -0.786117 -0.784038 -0.782599 -0.781991 -0.78234 -0.783792 -0.786544 -0.79076 
282 -0.941637 -0.939742 -0.93869 -0.938883 -0.940761 -0.944368 -0.948591 -0.951302 -0.951087 -0.949254 
283 -0.926604 -0.928435 -0.930114 -0.931676 -0.93319 -0.934702 -0.936232 -0.937773 -0.939209 -0.940192 
284 -0.791565 -0.789914 -0.787596 -0.784588 -0.781028 -0.777184 -0.773361 -0.769863 -0.767036 -0.765285 
285 -0.748775 -0.748942 -0.749623 -0.752014 -0.755053 -0.756317 -0.75508 -0.753855 -0.756196 -0.762686 
286 -0.857092 -0.857227 -0.857342 -0.857452 -0.85756 -0.85764 -0.857667 -0.857671 -0.857724 -0.857866 
287 -0.778024 -0.777483 -0.777249 -0.777458 -0.777513 -0.776982 -0.776306 -0.776265 -0.776712 -0.776256 
288 -0.927584 -0.927009 -0.927675 -0.929418 -0.931668 -0.933818 -0.935459 -0.936425 -0.936874 -0.937485 
289 -0.803971 -0.808241 -0.813296 -0.818993 -0.825136 -0.831472 -0.837732 -0.843699 -0.849205 -0.854074 