VARIABLES = "Cell" "Mode 0" "Mode 1" "Mode 2" "Mode 3" "Mode 4" "Mode 5" "Mode 6" "Mode 7" "Mode 8" "Mode 9" 
ZONE T = Iteration386
0 -0.85181 -0.851799 -0.851788 -0.851777 -0.851765 -0.851753 -0.851741 -0.851729 -0.851716 -0.851704 
1 -0.85181 -0.851799 -0.851788 -0.851777 -0.851765 -0.851753 -0.851741 -0.851729 -0.851716 -0.851704 
2 -0.85181 -0.851799 -0.851788 -0.851777 -0.851765 -0.851753 -0.851741 -0.851729 -0.851716 -0.851704 
3 -0.85181 -0.851799 -0.851788 -0.851777 -0.851765 -0.851753 -0.851741 -0.851729 -0.851716 -0.851704 
4 -0.85181 -0.851799 -0.851788 -0.851777 -0.851765 -0.851753 -0.851741 -0.851729 -0.851716 -0.851704 
5 -0.85181 -0.851799 -0.851788 -0.851777 -0.851765 -0.851753 -0.851741 -0.851729 -0.851716 -0.851704 
6 -0.85181 -0.851799 -0.851788 -0.851777 -0.851765 -0.851753 -0.851741 -0.851729 -0.851716 -0.851704 
7 -0.85181 -0.851799 -0.851788 -0.851777 -0.851765 -0.851753 -0.851741 -0.851729 -0.851716 -0.851704 
8 -0.85181 -0.851799 -0.851788 -0.851777 -0.851765 -0.851753 -0.851741 -0.851729 -0.851716 -0.851704 
9 -0.85181 -0.851799 -0.851788 -0.851777 -0.851765 -0.851753 -0.851741 -0.851729 -0.851716 -0.851704 
10 -0.85181 -0.851799 -0.851788 -0.851777 -0.851765 -0.851753 -0.851741 -0.851729 -0.851716 -0.851704 
11 -0.85181 -0.851799 -0.851788 -0.851777 -0.851765 -0.851753 -0.851741 -0.851729 -0.851716 -0.851704 
12 -0.85181 -0.851799 -0.851788 -0.851777 -0.851765 -0.851753 -0.851741 -0.851729 -0.851716 -0.851704 
13 -0.85181 -0.851799 -0.851788 -0.851777 -0.851765 -0.851753 -0.851741 -0.851729 -0.851716 -0.851704 
14 -0.85181 -0.851799 -0.851788 -0.851777 -0.851765 -0.851753 -0.851741 -0.851729 -0.851716 -0.851704 
15 -0.85181 -0.851799 -0.851788 -0.851777 -0.851765 -0.851753 -0.851741 -0.851729 -0.851716 -0.851704 
16 -0.85181 -0.851799 -0.851788 -0.851777 -0.851765 -0.851753 -0.851741 -0.851729 -0.851716 -0.851704 
17 -0.85181 -0.851799 -0.851788 -0.851777 -0.851765 -0.851753 -0.851741 -0.851729 -0.851716 -0.851704 
18 -0.85181 -0.851799 -0.851788 -0.851777 -0.851765 -0.851753 -0.851741 -0.851729 -0.851716 -0.851704 
19 -0.85181 -0.851799 -0.851788 -0.851777 -0.851765 -0.851753 -0.851741 -0.851729 -0.851716 -0.851704 
20 -0.85181 -0.851799 -0.851788 -0.851777 -0.851765 -0.851753 -0.851741 -0.851729 -0.851716 -0.851704 
21 -0.85181 -0.851799 -0.851788 -0.851777 -0.851765 -0.851753 -0.851741 -0.851729 -0.851716 -0.851704 
22 -0.85181 -0.851799 -0.851788 -0.851777 -0.851765 -0.851753 -0.851741 -0.851729 -0.851716 -0.851704 
23 -0.85181 -0.851799 -0.851788 -0.851777 -0.851765 -0.851753 -0.851741 -0.851729 -0.851716 -0.851704 
24 -0.85181 -0.851799 -0.851788 -0.851777 -0.851765 -0.851753 -0.851741 -0.851729 -0.851716 -0.851704 
25 -0.85181 -0.851799 -0.851788 -0.851777 -0.851765 -0.851753 -0.851741 -0.851729 -0.851716 -0.851704 
26 -0.85181 -0.851799 -0.851788 -0.851777 -0.851765 -0.851753 -0.851741 -0.851729 -0.851716 -0.851704 
27 -0.85181 -0.851799 -0.851788 -0.851777 -0.851765 -0.851753 -0.851741 -0.851729 -0.851716 -0.851704 
28 -0.85181 -0.851799 -0.851788 -0.851777 -0.851765 -0.851753 -0.851741 -0.851729 -0.851716 -0.851704 
29 -0.85181 -0.851799 -0.851788 -0.851777 -0.851765 -0.851753 -0.851741 -0.851729 -0.851716 -0.851704 
30 -0.85181 -0.851799 -0.851788 -0.851777 -0.851765 -0.851753 -0.851741 -0.851729 -0.851716 -0.851704 
31 -0.85181 -0.851799 -0.851788 -0.851777 -0.851765 -0.851753 -0.851741 -0.851729 -0.851716 -0.851704 
32 -0.85181 -0.851799 -0.851788 -0.851777 -0.851765 -0.851753 -0.851741 -0.851729 -0.851716 -0.851704 
33 -0.85181 -0.851799 -0.851788 -0.851777 -0.851765 -0.851753 -0.851741 -0.851729 -0.851716 -0.851704 
34 -0.85181 -0.851799 -0.851788 -0.851777 -0.851765 -0.851753 -0.851741 -0.851729 -0.851716 -0.851704 
35 -0.85181 -0.851799 -0.851788 -0.851777 -0.851765 -0.851753 -0.851741 -0.851729 -0.851716 -0.851704 
36 -0.85181 -0.851799 -0.851788 -0.851777 -0.851765 -0.851753 -0.851741 -0.851729 -0.851716 -0.851704 
37 -0.85181 -0.851799 -0.851788 -0.851777 -0.851765 -0.851753 -0.851741 -0.851729 -0.851716 -0.851704 
38 -0.85181 -0.851799 -0.851788 -0.851777 -0.851765 -0.851753 -0.851741 -0.851729 -0.851716 -0.851704 
39 -0.85181 -0.851799 -0.851788 -0.851777 -0.851765 -0.851753 -0.851741 -0.851729 -0.851716 -0.851704 
40 -0.85181 -0.851799 -0.851788 -0.851777 -0.851765 -0.851753 -0.851741 -0.851729 -0.851716 -0.851704 
41 -0.85181 -0.851799 -0.851788 -0.851777 -0.851765 -0.851753 -0.851741 -0.851729 -0.851716 -0.851704 
42 -0.85181 -0.851799 -0.851788 -0.851777 -0.851765 -0.851753 -0.851741 -0.851729 -0.851716 -0.851704 
43 -0.85181 -0.851799 -0.851788 -0.851777 -0.851765 -0.851753 -0.851741 -0.851729 -0.851716 -0.851704 
44 -0.85181 -0.851799 -0.851788 -0.851777 -0.851765 -0.851753 -0.851741 -0.851729 -0.851716 -0.851704 
45 -0.85181 -0.851799 -0.851788 -0.851777 -0.851765 -0.851753 -0.851741 -0.851729 -0.851716 -0.851704 
46 -0.85181 -0.851799 -0.851788 -0.851777 -0.851765 -0.851753 -0.851741 -0.851729 -0.851716 -0.851704 
47 -0.85181 -0.851799 -0.851788 -0.851777 -0.851765 -0.851753 -0.851741 -0.851729 -0.851716 -0.851704 
48 -0.85181 -0.851799 -0.851788 -0.851777 -0.851765 -0.851753 -0.851741 -0.851729 -0.851716 -0.851704 
49 -0.85181 -0.851799 -0.851788 -0.851777 -0.851765 -0.851753 -0.851741 -0.851729 -0.851716 -0.851704 
50 -0.85181 -0.851799 -0.851788 -0.851777 -0.851765 -0.851753 -0.851741 -0.851729 -0.851716 -0.851704 
51 -0.85181 -0.851799 -0.851788 -0.851777 -0.851765 -0.851753 -0.851741 -0.851729 -0.851716 -0.851704 
52 -0.85181 -0.851799 -0.851788 -0.851777 -0.851765 -0.851753 -0.851741 -0.851729 -0.851716 -0.851704 
53 -0.85181 -0.851799 -0.851788 -0.851777 -0.851765 -0.851753 -0.851741 -0.851729 -0.851716 -0.851704 
54 -0.85181 -0.851799 -0.851788 -0.851777 -0.851765 -0.851753 -0.851741 -0.851729 -0.851716 -0.851704 
55 -0.85181 -0.851799 -0.851788 -0.851777 -0.851765 -0.851753 -0.851741 -0.851729 -0.851716 -0.851704 
56 -0.85181 -0.851799 -0.851788 -0.851777 -0.851765 -0.851753 -0.851741 -0.851729 -0.851716 -0.851704 
57 -0.85181 -0.851799 -0.851788 -0.851777 -0.851765 -0.851753 -0.851741 -0.851729 -0.851716 -0.851704 
58 -0.85181 -0.851799 -0.851788 -0.851777 -0.851765 -0.851753 -0.851741 -0.851729 -0.851716 -0.851704 
59 -0.85181 -0.851799 -0.851788 -0.851777 -0.851765 -0.851753 -0.851741 -0.851729 -0.851716 -0.851704 
60 -0.85181 -0.851799 -0.851788 -0.851777 -0.851765 -0.851753 -0.851741 -0.851729 -0.851716 -0.851704 
61 -0.85181 -0.851799 -0.851788 -0.851777 -0.851765 -0.851753 -0.851741 -0.851729 -0.851716 -0.851704 
62 -0.85181 -0.851799 -0.851788 -0.851777 -0.851765 -0.851753 -0.851741 -0.851729 -0.851716 -0.851704 
63 -0.85181 -0.851799 -0.851788 -0.851777 -0.851765 -0.851753 -0.851741 -0.851729 -0.851716 -0.851704 
64 -0.85181 -0.851799 -0.851788 -0.851777 -0.851765 -0.851753 -0.851741 -0.851729 -0.851716 -0.851704 
65 -0.85181 -0.851799 -0.851788 -0.851777 -0.851765 -0.851753 -0.851741 -0.851729 -0.851717 -0.851704 
66 -0.85181 -0.851799 -0.851788 -0.851777 -0.851765 -0.851753 -0.851741 -0.851729 -0.851716 -0.851704 
67 -0.85181 -0.851799 -0.851788 -0.851777 -0.851765 -0.851753 -0.851741 -0.851729 -0.851716 -0.851704 
68 -0.85181 -0.851799 -0.851788 -0.851777 -0.851765 -0.851753 -0.851741 -0.851729 -0.851717 -0.851704 
69 -0.85181 -0.851799 -0.851788 -0.851777 -0.851765 -0.851753 -0.851741 -0.851729 -0.851716 -0.851704 
70 -0.85181 -0.851799 -0.851788 -0.851777 -0.851765 -0.851753 -0.851741 -0.851729 -0.851716 -0.851704 
71 -0.85181 -0.851799 -0.851788 -0.851777 -0.851765 -0.851753 -0.851741 -0.851729 -0.851716 -0.851704 
72 -0.851811 -0.8518 -0.851788 -0.851777 -0.851765 -0.851753 -0.851741 -0.851729 -0.851717 -0.851704 
73 -0.85181 -0.851799 -0.851788 -0.851777 -0.851765 -0.851753 -0.851741 -0.851729 -0.851717 -0.851704 
74 -0.85181 -0.851799 -0.851788 -0.851777 -0.851765 -0.851753 -0.851741 -0.851729 -0.851716 -0.851704 
75 -0.851811 -0.8518 -0.851789 -0.851778 -0.851766 -0.851754 -0.851742 -0.85173 -0.851717 -0.851705 
76 -0.85181 -0.851799 -0.851788 -0.851777 -0.851765 -0.851753 -0.851741 -0.851729 -0.851716 -0.851704 
77 -0.85181 -0.851799 -0.851788 -0.851777 -0.851765 -0.851753 -0.851741 -0.851729 -0.851716 -0.851704 
78 -0.85181 -0.851799 -0.851788 -0.851777 -0.851765 -0.851753 -0.851741 -0.851729 -0.851716 -0.851704 
79 -0.851805 -0.851794 -0.851783 -0.851771 -0.85176 -0.851748 -0.851736 -0.851723 -0.851711 -0.851698 
80 -0.851811 -0.8518 -0.851789 -0.851777 -0.851766 -0.851754 -0.851742 -0.85173 -0.851717 -0.851705 
81 -0.851818 -0.851807 -0.851796 -0.851784 -0.851772 -0.85176 -0.851748 -0.851736 -0.851723 -0.85171 
82 -0.851802 -0.851791 -0.85178 -0.851768 -0.851757 -0.851745 -0.851733 -0.851721 -0.851708 -0.851696 
83 -0.851809 -0.851798 -0.851787 -0.851775 -0.851764 -0.851752 -0.85174 -0.851727 -0.851715 -0.851702 
84 -0.851806 -0.851795 -0.851784 -0.851773 -0.851761 -0.851749 -0.851737 -0.851725 -0.851713 -0.8517 
85 -0.851805 -0.851794 -0.851783 -0.851771 -0.851759 -0.851747 -0.851735 -0.851723 -0.85171 -0.851698 
86 -0.851809 -0.851798 -0.851787 -0.851775 -0.851764 -0.851752 -0.85174 -0.851728 -0.851716 -0.851703 
87 -0.85181 -0.851799 -0.851788 -0.851777 -0.851765 -0.851753 -0.851741 -0.851729 -0.851716 -0.851704 
88 -0.851811 -0.8518 -0.851789 -0.851778 -0.851766 -0.851754 -0.851742 -0.85173 -0.851718 -0.851705 
89 -0.851878 -0.851868 -0.851857 -0.851846 -0.851835 -0.851823 -0.851811 -0.851799 -0.851787 -0.851775 
90 -0.85181 -0.851799 -0.851788 -0.851777 -0.851765 -0.851753 -0.851741 -0.851729 -0.851717 -0.851704 
91 -0.85171 -0.851699 -0.851688 -0.851677 -0.851666 -0.851655 -0.851644 -0.851632 -0.85162 -0.851608 
92 -0.851879 -0.851868 -0.851856 -0.851845 -0.851833 -0.851821 -0.851809 -0.851796 -0.851784 -0.851771 
93 -0.851983 -0.85197 -0.851957 -0.851944 -0.851931 -0.851917 -0.851903 -0.851889 -0.851875 -0.85186 
94 -0.85181 -0.851799 -0.851788 -0.851777 -0.851765 -0.851753 -0.851741 -0.851729 -0.851716 -0.851704 
95 -0.851786 -0.851772 -0.851759 -0.851746 -0.851732 -0.851718 -0.851704 -0.851689 -0.851675 -0.85166 
96 -0.851779 -0.851765 -0.851751 -0.851737 -0.851722 -0.851708 -0.851693 -0.851679 -0.851664 -0.851649 
97 -0.852029 -0.852017 -0.852005 -0.851992 -0.851979 -0.851965 -0.851952 -0.851938 -0.851923 -0.851909 
98 -0.851811 -0.8518 -0.851789 -0.851778 -0.851766 -0.851754 -0.851742 -0.85173 -0.851717 -0.851705 
99 -0.851303 -0.851298 -0.851293 -0.851288 -0.851283 -0.851278 -0.851273 -0.851268 -0.851263 -0.851258 
100 -0.852698 -0.85269 -0.852682 -0.852673 -0.852664 -0.852653 -0.852642 -0.852631 -0.852619 -0.852606 
101 -0.851842 -0.851831 -0.85182 -0.851808 -0.851797 -0.851785 -0.851772 -0.85176 -0.851748 -0.851735 
102 -0.851507 -0.85151 -0.851513 -0.851516 -0.851518 -0.851521 -0.851522 -0.851524 -0.851526 -0.851527 
103 -0.851885 -0.851873 -0.85186 -0.851848 -0.851835 -0.851822 -0.851808 -0.851795 -0.851781 -0.851768 
104 -0.852366 -0.85236 -0.852354 -0.852347 -0.85234 -0.852333 -0.852326 -0.852318 -0.85231 -0.852302 
105 -0.852124 -0.852098 -0.852072 -0.852045 -0.852019 -0.851992 -0.851965 -0.851939 -0.851912 -0.851885 
106 -0.851777 -0.851766 -0.851755 -0.851744 -0.851732 -0.851721 -0.851709 -0.851697 -0.851684 -0.851672 
107 -0.85181 -0.851799 -0.851788 -0.851777 -0.851765 -0.851753 -0.851741 -0.851729 -0.851716 -0.851704 
108 -0.851752 -0.851748 -0.851742 -0.851737 -0.851731 -0.851725 -0.851719 -0.851712 -0.851706 -0.851699 
109 -0.850406 -0.850404 -0.850401 -0.850399 -0.850396 -0.850394 -0.850392 -0.85039 -0.850388 -0.850386 
110 -0.850339 -0.850304 -0.850269 -0.850234 -0.850199 -0.850165 -0.850131 -0.850097 -0.850064 -0.850031 
111 -0.849488 -0.849518 -0.849549 -0.84958 -0.849612 -0.849644 -0.849677 -0.84971 -0.849743 -0.849777 
112 -0.852006 -0.851994 -0.851982 -0.85197 -0.851957 -0.851944 -0.851931 -0.851918 -0.851904 -0.85189 
113 -0.85181 -0.851799 -0.851788 -0.851777 -0.851765 -0.851753 -0.851741 -0.851729 -0.851716 -0.851704 
114 -0.850548 -0.850556 -0.850563 -0.850571 -0.850578 -0.850585 -0.850591 -0.850597 -0.850603 -0.850609 
115 -0.854061 -0.854031 -0.854 -0.853968 -0.853936 -0.853902 -0.853867 -0.853832 -0.853795 -0.853758 
116 -0.851073 -0.851084 -0.851094 -0.851104 -0.851114 -0.851123 -0.851132 -0.851141 -0.85115 -0.851158 
117 -0.85003 -0.849994 -0.849959 -0.849926 -0.849892 -0.84986 -0.849829 -0.849798 -0.849768 -0.849739 
118 -0.850481 -0.850467 -0.850452 -0.850436 -0.850419 -0.850402 -0.850385 -0.850366 -0.850348 -0.850329 
119 -0.848681 -0.848662 -0.848642 -0.848623 -0.848604 -0.848585 -0.848567 -0.848548 -0.84853 -0.848512 
120 -0.852212 -0.852177 -0.852142 -0.852108 -0.852072 -0.852037 -0.852002 -0.851967 -0.851931 -0.851896 
121 -0.851721 -0.851746 -0.851772 -0.851798 -0.851824 -0.85185 -0.851877 -0.851904 -0.851931 -0.851958 
122 -0.851499 -0.851455 -0.85141 -0.851364 -0.851317 -0.851269 -0.851221 -0.851171 -0.851121 -0.85107 
123 -0.848896 -0.848861 -0.848826 -0.848791 -0.848757 -0.848722 -0.848688 -0.848654 -0.84862 -0.848587 
124 -0.852569 -0.852585 -0.852601 -0.852616 -0.852632 -0.852648 -0.852663 -0.852679 -0.852695 -0.85271 
125 -0.852913 -0.852915 -0.852916 -0.852918 -0.85292 -0.852922 -0.852924 -0.852926 -0.852928 -0.85293 
126 -0.851808 -0.851797 -0.851786 -0.851775 -0.851763 -0.851751 -0.851739 -0.851727 -0.851714 -0.851702 
127 -0.852256 -0.852246 -0.852234 -0.852222 -0.852208 -0.852193 -0.852177 -0.85216 -0.852142 -0.852123 
128 -0.854342 -0.854366 -0.854389 -0.854412 -0.854435 -0.854457 -0.854479 -0.854501 -0.854523 -0.854544 
129 -0.852127 -0.852101 -0.852077 -0.852053 -0.85203 -0.852007 -0.851986 -0.851965 -0.851946 -0.851927 
130 -0.852393 -0.852364 -0.852335 -0.852308 -0.852281 -0.852255 -0.85223 -0.852206 -0.852183 -0.852161 
131 -0.849836 -0.849805 -0.849774 -0.849743 -0.849713 -0.849683 -0.849652 -0.849623 -0.849593 -0.849564 
132 -0.851486 -0.851469 -0.85145 -0.85143 -0.851409 -0.851386 -0.851362 -0.851336 -0.851309 -0.851281 
133 -0.851897 -0.851873 -0.85185 -0.851827 -0.851804 -0.851781 -0.851759 -0.851736 -0.851715 -0.851693 
134 -0.852533 -0.852546 -0.852558 -0.85257 -0.852581 -0.852591 -0.852601 -0.852611 -0.85262 -0.852628 
135 -0.852507 -0.852497 -0.852485 -0.852471 -0.852455 -0.852437 -0.852417 -0.852394 -0.852369 -0.852342 
136 -0.851826 -0.851815 -0.851803 -0.851791 -0.851779 -0.851767 -0.851754 -0.851741 -0.851728 -0.851715 
137 -0.851062 -0.851053 -0.851044 -0.851035 -0.851026 -0.851017 -0.851007 -0.850998 -0.850989 -0.85098 
138 -0.852455 -0.852428 -0.852402 -0.852377 -0.852352 -0.852328 -0.852305 -0.852283 -0.852262 -0.852241 
139 -0.849351 -0.849359 -0.849366 -0.849372 -0.849379 -0.849385 -0.849391 -0.849396 -0.849401 -0.849406 
140 -0.850809 -0.850796 -0.850783 -0.850769 -0.850755 -0.850741 -0.850725 -0.85071 -0.850694 -0.850678 
141 -0.852059 -0.851985 -0.851913 -0.851841 -0.85177 -0.851701 -0.851633 -0.851566 -0.8515 -0.851436 
142 -0.850011 -0.850039 -0.850067 -0.850093 -0.850118 -0.850142 -0.850164 -0.850186 -0.850207 -0.850226 
143 -0.85581 -0.855819 -0.855827 -0.855836 -0.855844 -0.855851 -0.855859 -0.855865 -0.855872 -0.855879 
144 -0.851371 -0.851364 -0.851359 -0.851355 -0.851353 -0.851352 -0.851353 -0.851355 -0.851359 -0.851365 
145 -0.851331 -0.851298 -0.851262 -0.851225 -0.851186 -0.851145 -0.851102 -0.851058 -0.851012 -0.850964 
146 -0.853075 -0.853061 -0.853049 -0.853038 -0.853028 -0.853019 -0.853012 -0.853006 -0.853002 -0.852999 
147 -0.855371 -0.855382 -0.855393 -0.855403 -0.855413 -0.855422 -0.855431 -0.855439 -0.855447 -0.855455 
148 -0.851599 -0.851557 -0.851514 -0.85147 -0.851425 -0.851379 -0.851332 -0.851285 -0.851236 -0.851187 
149 -0.853988 -0.853969 -0.853951 -0.853934 -0.853918 -0.853903 -0.853889 -0.853876 -0.853863 -0.853852 
150 -0.857624 -0.857623 -0.85762 -0.857617 -0.857613 -0.857608 -0.857601 -0.857594 -0.857586 -0.857577 
151 -0.850109 -0.850138 -0.850166 -0.850193 -0.85022 -0.850246 -0.850272 -0.850297 -0.850321 -0.850344 
152 -0.849787 -0.849748 -0.849709 -0.84967 -0.849632 -0.849593 -0.849554 -0.849515 -0.849477 -0.849439 
153 -0.850297 -0.850306 -0.850317 -0.85033 -0.850347 -0.850365 -0.850386 -0.85041 -0.850436 -0.850464 
154 -0.848893 -0.848921 -0.84895 -0.84898 -0.84901 -0.849041 -0.849073 -0.849105 -0.849138 -0.849171 
155 -0.847821 -0.847849 -0.847875 -0.8479 -0.847924 -0.847947 -0.847969 -0.847989 -0.848009 -0.848027 
156 -0.855602 -0.855577 -0.855554 -0.855532 -0.855511 -0.855492 -0.855475 -0.855459 -0.855446 -0.855435 
157 -0.856938 -0.856935 -0.856934 -0.856933 -0.856934 -0.856936 -0.856939 -0.856943 -0.856948 -0.856955 
158 -0.84832 -0.848322 -0.848321 -0.848318 -0.848313 -0.848305 -0.848295 -0.848283 -0.848269 -0.848252 
159 -0.850052 -0.85004 -0.850028 -0.850016 -0.850003 -0.849991 -0.849979 -0.849966 -0.849954 -0.849941 
160 -0.859527 -0.859535 -0.859542 -0.859547 -0.85955 -0.859552 -0.859551 -0.859549 -0.859544 -0.859537 
161 -0.837394 -0.837393 -0.837392 -0.837391 -0.83739 -0.837389 -0.837389 -0.837389 -0.837389 -0.83739 
162 -0.845943 -0.845933 -0.845925 -0.845919 -0.845915 -0.845913 -0.845912 -0.845912 -0.845914 -0.845918 
163 -0.842344 -0.842349 -0.842355 -0.842361 -0.842369 -0.842377 -0.842386 -0.842395 -0.842404 -0.842414 
164 -0.857446 -0.857433 -0.85742 -0.857406 -0.857391 -0.857376 -0.857361 -0.857346 -0.857331 -0.857316 
165 -0.860408 -0.860414 -0.86042 -0.860427 -0.860434 -0.860443 -0.860452 -0.860462 -0.860472 -0.860484 
166 -0.83603 -0.836018 -0.836006 -0.835995 -0.835984 -0.835973 -0.835963 -0.835953 -0.835943 -0.835934 
167 -0.852674 -0.852654 -0.852633 -0.852612 -0.852591 -0.85257 -0.852549 -0.852528 -0.852508 -0.852487 
168 -0.838667 -0.838646 -0.838626 -0.838607 -0.838589 -0.838572 -0.838555 -0.83854 -0.838525 -0.838511 
169 -0.862041 -0.862063 -0.862085 -0.862107 -0.862128 -0.862148 -0.862168 -0.862187 -0.862205 -0.862221 
170 -0.863403 -0.863395 -0.863386 -0.863375 -0.863362 -0.863348 -0.863332 -0.863314 -0.863295 -0.863276 
171 -0.864409 -0.864399 -0.864387 -0.864375 -0.864362 -0.864348 -0.864335 -0.864321 -0.864307 -0.864295 
172 -0.841874 -0.841858 -0.841843 -0.841827 -0.841812 -0.841798 -0.841785 -0.841772 -0.841761 -0.84175 
173 -0.85181 -0.851799 -0.851788 -0.851777 -0.851765 -0.851753 -0.851741 -0.851729 -0.851716 -0.851704 
174 -0.860353 -0.860333 -0.860315 -0.8603 -0.860288 -0.860278 -0.86027 -0.860265 -0.86026 -0.860258 
175 -0.870746 -0.87075 -0.870755 -0.87076 -0.870766 -0.87077 -0.870774 -0.870777 -0.870778 -0.870778 
176 -0.842923 -0.842885 -0.842846 -0.842808 -0.84277 -0.842732 -0.842695 -0.842659 -0.842623 -0.842588 
177 -0.833673 -0.83364 -0.833606 -0.83357 -0.833534 -0.833496 -0.833459 -0.833421 -0.833383 -0.833345 
178 -0.86844 -0.868447 -0.868456 -0.868467 -0.86848 -0.868494 -0.868508 -0.868522 -0.868535 -0.868547 
179 -0.85181 -0.851799 -0.851788 -0.851777 -0.851765 -0.851753 -0.851741 -0.851729 -0.851716 -0.851704 
180 -0.84749 -0.847471 -0.847456 -0.847445 -0.847438 -0.847435 -0.847434 -0.847437 -0.847442 -0.84745 
181 -0.872894 -0.872885 -0.872874 -0.872862 -0.872849 -0.872835 -0.87282 -0.872804 -0.872787 -0.87277 
182 -0.827339 -0.827299 -0.827258 -0.827216 -0.827174 -0.827129 -0.827084 -0.827038 -0.826992 -0.826944 
183 -0.834533 -0.834507 -0.834482 -0.834457 -0.834433 -0.834409 -0.834384 -0.83436 -0.834336 -0.834311 
184 -0.834081 -0.834028 -0.833977 -0.833927 -0.83388 -0.833834 -0.833792 -0.833754 -0.833719 -0.833688 
185 -0.87547 -0.875475 -0.875479 -0.875481 -0.875481 -0.875479 -0.875474 -0.875467 -0.875456 -0.875443 
186 -0.885604 -0.885593 -0.885586 -0.885584 -0.885586 -0.885592 -0.8856 -0.885612 -0.885627 -0.885643 
187 -0.833352 -0.833326 -0.833295 -0.83326 -0.833221 -0.833177 -0.83313 -0.833079 -0.833024 -0.832966 
188 -0.859258 -0.859212 -0.85917 -0.859132 -0.859098 -0.859068 -0.859043 -0.859022 -0.859004 -0.858991 
189 -0.882438 -0.882398 -0.882365 -0.882338 -0.882317 -0.882302 -0.882294 -0.882291 -0.882293 -0.8823 
190 -0.851392 -0.851332 -0.851272 -0.851212 -0.851152 -0.851093 -0.851034 -0.850975 -0.850917 -0.85086 
191 -0.85181 -0.851799 -0.851788 -0.851777 -0.851765 -0.851753 -0.851741 -0.851729 -0.851716 -0.851704 
192 -0.805727 -0.805693 -0.805658 -0.805621 -0.805584 -0.805546 -0.805507 -0.805467 -0.805427 -0.805386 
193 -0.85181 -0.851799 -0.851788 -0.851777 -0.851765 -0.851753 -0.851741 -0.851729 -0.851716 -0.851704 
194 -0.862715 -0.862696 -0.862676 -0.862656 -0.862635 -0.862613 -0.862591 -0.862569 -0.862546 -0.862523 
195 -0.849158 -0.849055 -0.848954 -0.848858 -0.848766 -0.848679 -0.848599 -0.848525 -0.848458 -0.848398 
196 -0.847455 -0.847459 -0.847461 -0.847462 -0.847461 -0.847458 -0.847454 -0.847449 -0.847442 -0.847433 
197 -0.851658 -0.851621 -0.851584 -0.851549 -0.851514 -0.85148 -0.851446 -0.851414 -0.851383 -0.851352 
198 -0.85181 -0.851799 -0.851788 -0.851777 -0.851765 -0.851753 -0.851741 -0.851729 -0.851716 -0.851704 
199 -0.793172 -0.793173 -0.793172 -0.793169 -0.793164 -0.793156 -0.793145 -0.793129 -0.79311 -0.793087 
200 -0.828221 -0.828131 -0.828042 -0.827956 -0.827872 -0.827791 -0.827715 -0.827643 -0.827576 -0.827514 
201 -0.900834 -0.900769 -0.90071 -0.900656 -0.900609 -0.900568 -0.900534 -0.900506 -0.900485 -0.900469 
202 -0.85181 -0.851799 -0.851788 -0.851777 -0.851765 -0.851753 -0.851741 -0.851729 -0.851716 -0.851704 
203 -0.87098 -0.870945 -0.870909 -0.870872 -0.870834 -0.870794 -0.870755 -0.870714 -0.870674 -0.870634 
204 -0.853264 -0.853246 -0.853227 -0.853207 -0.853186 -0.853164 -0.853141 -0.853117 -0.853091 -0.853065 
205 -0.893467 -0.893453 -0.893443 -0.893438 -0.893437 -0.893439 -0.893446 -0.893456 -0.893469 -0.893485 
206 -0.85181 -0.851799 -0.851788 -0.851777 -0.851765 -0.851753 -0.851741 -0.851729 -0.851716 -0.851704 
207 -0.771204 -0.771164 -0.771123 -0.771081 -0.771036 -0.770991 -0.770944 -0.770896 -0.770847 -0.770797 
208 -0.853618 -0.853502 -0.853391 -0.853285 -0.853187 -0.853096 -0.853013 -0.852938 -0.852872 -0.852816 
209 -0.889222 -0.889209 -0.889199 -0.88919 -0.889184 -0.889179 -0.889175 -0.889173 -0.889172 -0.889173 
210 -0.911224 -0.911122 -0.911025 -0.910934 -0.91085 -0.910773 -0.910704 -0.910643 -0.91059 -0.910546 
211 -0.85181 -0.851799 -0.851788 -0.851777 -0.851765 -0.851753 -0.851741 -0.851729 -0.851716 -0.851704 
212 -0.85181 -0.851799 -0.851788 -0.851777 -0.851765 -0.851753 -0.851741 -0.851729 -0.851716 -0.851704 
213 -0.843194 -0.843206 -0.843219 -0.843233 -0.843248 -0.843265 -0.843282 -0.8433 -0.843319 -0.843339 
214 -0.758456 -0.758445 -0.758433 -0.758419 -0.758404 -0.758386 -0.758367 -0.758345 -0.75832 -0.758293 
215 -0.788656 -0.788528 -0.7884 -0.788272 -0.788146 -0.788023 -0.787904 -0.787791 -0.787684 -0.787585 
216 -0.796261 -0.796138 -0.796016 -0.795896 -0.795779 -0.795666 -0.795559 -0.795458 -0.795364 -0.795279 
217 -0.857068 -0.857055 -0.857039 -0.857022 -0.857003 -0.856982 -0.85696 -0.856935 -0.856909 -0.85688 
218 -0.835843 -0.835674 -0.835508 -0.835345 -0.835188 -0.835038 -0.834896 -0.834763 -0.83464 -0.834529 
219 -0.852376 -0.852365 -0.852354 -0.852343 -0.852331 -0.852319 -0.852307 -0.852294 -0.852282 -0.852269 
220 -0.94402 -0.943934 -0.943848 -0.943763 -0.94368 -0.9436 -0.943523 -0.94345 -0.943381 -0.943318 
221 -0.783671 -0.783573 -0.783475 -0.783376 -0.783277 -0.78318 -0.783085 -0.782993 -0.782905 -0.782821 
222 -0.727332 -0.727164 -0.726997 -0.726834 -0.726675 -0.726523 -0.726379 -0.726243 -0.726118 -0.726004 
223 -0.897192 -0.897072 -0.896951 -0.89683 -0.896712 -0.896596 -0.896484 -0.896378 -0.896278 -0.896185 
224 -0.917367 -0.917313 -0.917262 -0.917216 -0.917174 -0.917138 -0.917107 -0.917081 -0.91706 -0.917044 
225 -0.830994 -0.830993 -0.830993 -0.830994 -0.830995 -0.830996 -0.830998 -0.831001 -0.831005 -0.831009 
226 -0.797606 -0.797623 -0.797645 -0.797671 -0.797702 -0.797735 -0.797771 -0.797809 -0.797848 -0.797886 
227 -0.882189 -0.882045 -0.881897 -0.881747 -0.881596 -0.881446 -0.881299 -0.881155 -0.881017 -0.880885 
228 -0.820733 -0.820741 -0.820752 -0.820765 -0.820779 -0.820794 -0.82081 -0.820826 -0.820842 -0.820856 
229 -0.85181 -0.851799 -0.851788 -0.851777 -0.851765 -0.851753 -0.851741 -0.851729 -0.851716 -0.851704 
230 -0.85181 -0.851799 -0.851788 -0.851777 -0.851765 -0.851753 -0.851741 -0.851729 -0.851716 -0.851704 
231 -0.85181 -0.851799 -0.851788 -0.851777 -0.851765 -0.851753 -0.851741 -0.851729 -0.851716 -0.851704 
232 -1.08441 -1.08418 -1.08396 -1.08374 -1.08352 -1.08332 -1.08313 -1.08295 -1.08279 -1.08264 
233 -0.851828 -0.851817 -0.851805 -0.851793 -0.851781 -0.851769 -0.851757 -0.851744 -0.851731 -0.851719 
234 -0.978133 -0.97803 -0.977927 -0.977826 -0.977728 -0.977634 -0.977544 -0.97746 -0.977382 -0.97731 
235 -0.636766 -0.636612 -0.636449 -0.63628 -0.636107 -0.635931 -0.635754 -0.635579 -0.635407 -0.63524 
236 -0.908615 -0.908577 -0.908543 -0.908513 -0.908488 -0.908467 -0.908451 -0.908439 -0.908431 -0.908428 
237 -1.10018 -1.09996 -1.09974 -1.09953 -1.09932 -1.09912 -1.09892 -1.09873 -1.09856 -1.0984 
238 -0.853031 -0.853029 -0.853026 -0.853023 -0.85302 -0.853016 -0.853012 -0.853007 -0.853003 -0.852998 
239 -0.697335 -0.697189 -0.697031 -0.696865 -0.696692 -0.696514 -0.696333 -0.696152 -0.695974 -0.695799 
240 -0.759082 -0.759059 -0.759039 -0.759022 -0.759007 -0.758995 -0.758985 -0.758977 -0.758971 -0.758966 
241 -0.722975 -0.72291 -0.722843 -0.722774 -0.722704 -0.722634 -0.722564 -0.722495 -0.722426 -0.722359 
242 -0.851807 -0.851796 -0.851785 -0.851774 -0.851762 -0.85175 -0.851738 -0.851726 -0.851714 -0.851701 
243 -0.984969 -0.984892 -0.984816 -0.984742 -0.98467 -0.984602 -0.984538 -0.984477 -0.984422 -0.984372 
244 -1.11191 -1.11175 -1.11159 -1.11144 -1.11129 -1.11115 -1.11103 -1.11091 -1.1108 -1.11071 
245 -0.51092 -0.510853 -0.510779 -0.510699 -0.510614 -0.510523 -0.510429 -0.51033 -0.510229 -0.510126 
246 -1.04488 -1.04476 -1.04464 -1.04452 -1.0444 -1.0443 -1.0442 -1.0441 -1.04402 -1.04394 
247 -0.848688 -0.848662 -0.848636 -0.848609 -0.848582 -0.848554 -0.848525 -0.848496 -0.848466 -0.848437 
248 -0.85181 -0.851799 -0.851788 -0.851777 -0.851765 -0.851753 -0.851741 -0.851729 -0.851716 -0.851704 
249 -0.599174 -0.599089 -0.598999 -0.598906 -0.59881 -0.598712 -0.598613 -0.598513 -0.598414 -0.598316 
250 -0.811492 -0.811514 -0.811542 -0.811577 -0.811618 -0.811663 -0.811711 -0.811762 -0.811814 -0.811866 
251 -0.764754 -0.764786 -0.764827 -0.764875 -0.764929 -0.764988 -0.765051 -0.765116 -0.765183 -0.76525 
252 -0.734391 -0.734333 -0.734275 -0.734216 -0.734157 -0.734099 -0.734042 -0.733986 -0.733932 -0.73388 
253 -0.85181 -0.851799 -0.851788 -0.851777 -0.851765 -0.851753 -0.851741 -0.851729 -0.851717 -0.851704 
254 -0.882323 -0.882313 -0.882304 -0.882296 -0.882288 -0.882281 -0.882274 -0.882267 -0.882259 -0.882251 
255 -0.851521 -0.851515 -0.85151 -0.851504 -0.851498 -0.851492 -0.851486 -0.851479 -0.851473 -0.851466 
256 -0.86121 -0.861192 -0.861173 -0.861154 -0.861134 -0.861113 -0.861092 -0.86107 -0.861048 -0.861025 
257 -1.04458 -1.04451 -1.04444 -1.04437 -1.04431 -1.04425 -1.04419 -1.04413 -1.04408 -1.04403 
258 -0.823568 -0.823598 -0.82363 -0.823663 -0.823697 -0.823732 -0.823766 -0.8238 -0.823833 -0.823864 
259 -0.872217 -0.872189 -0.87216 -0.87213 -0.872099 -0.872067 -0.872034 -0.872 -0.871965 -0.871929 
260 -0.621496 -0.621471 -0.621445 -0.62142 -0.621394 -0.621369 -0.621343 -0.621317 -0.62129 -0.621263 
261 -0.992418 -0.992351 -0.992285 -0.992221 -0.992159 -0.9921 -0.992043 -0.991991 -0.991942 -0.991898 
262 -1.02481 -1.02475 -1.02469 -1.02463 -1.02457 -1.02451 -1.02446 -1.02441 -1.02437 -1.02433 
263 -0.851819 -0.85181 -0.851801 -0.851791 -0.851782 -0.851771 -0.851761 -0.851751 -0.85174 -0.851729 
264 -0.835276 -0.835305 -0.835333 -0.835361 -0.83539 -0.835419 -0.835448 -0.835478 -0.835508 -0.835539 
265 -0.70703 -0.70699 -0.70695 -0.706911 -0.706874 -0.706837 -0.706802 -0.706768 -0.706736 -0.706706 
266 -0.666325 -0.666294 -0.666261 -0.666225 -0.666187 -0.666147 -0.666104 -0.66606 -0.666013 -0.665965 
267 -0.909522 -0.909501 -0.909483 -0.909467 -0.909453 -0.909442 -0.909433 -0.909427 -0.909422 -0.90942 
268 -0.842726 -0.842799 -0.842871 -0.842944 -0.843017 -0.843089 -0.84316 -0.84323 -0.843299 -0.843366 
269 -0.851809 -0.851798 -0.851787 -0.851776 -0.851764 -0.851752 -0.85174 -0.851728 -0.851715 -0.851703 
270 -1.00553 -1.00549 -1.00545 -1.00541 -1.00538 -1.00534 -1.00531 -1.00527 -1.00524 -1.00522 
271 -0.965698 -0.965646 -0.965596 -0.965548 -0.965502 -0.965458 -0.965418 -0.965381 -0.965347 -0.965316 
272 -0.688005 -0.687966 -0.687932 -0.687904 -0.687882 -0.687866 -0.687856 -0.687853 -0.687856 -0.687864 
273 -0.771316 -0.771289 -0.771273 -0.771267 -0.771272 -0.771286 -0.77131 -0.771343 -0.771384 -0.771431 
274 -0.730658 -0.730639 -0.730622 -0.730607 -0.730594 -0.730583 -0.730574 -0.730567 -0.730562 -0.730559 
275 -0.851709 -0.851702 -0.851693 -0.851685 -0.851676 -0.851666 -0.851656 -0.851646 -0.851635 -0.851624 
276 -0.977499 -0.977459 -0.97742 -0.977382 -0.977347 -0.977313 -0.977282 -0.977253 -0.977227 -0.977203 
277 -0.85181 -0.851799 -0.851788 -0.851777 -0.851765 -0.851753 -0.851741 -0.851729 -0.851716 -0.851704 
278 -0.71187 -0.711875 -0.711881 -0.711888 -0.711896 -0.711905 -0.711914 -0.711924 -0.711933 -0.711942 
279 -0.762462 -0.762444 -0.762433 -0.762428 -0.762429 -0.762435 -0.762446 -0.762462 -0.762482 -0.762506 
280 -0.936822 -0.936789 -0.936757 -0.936725 -0.936695 -0.936667 -0.93664 -0.936615 -0.936592 -0.93657 
281 -0.826832 -0.826682 -0.826537 -0.826401 -0.826272 -0.826152 -0.826042 -0.825942 -0.825852 -0.825773 
282 -0.939653 -0.939638 -0.939624 -0.939612 -0.9396 -0.939589 -0.93958 -0.939571 -0.939563 -0.939555 
283 -0.895679 -0.895665 -0.895653 -0.895642 -0.895633 -0.895624 -0.895616 -0.895609 -0.895602 -0.895596 
284 -0.802014 -0.801889 -0.801775 -0.801671 -0.801578 -0.801498 -0.801429 -0.801372 -0.801327 -0.801294 
285 -0.744283 -0.744143 -0.744007 -0.743877 -0.743754 -0.743638 -0.743532 -0.743436 -0.743352 -0.74328 
286 -0.85181 -0.851799 -0.851788 -0.851777 -0.851765 -0.851753 -0.851741 -0.851729 -0.851716 -0.851704 
287 -0.773768 -0.773742 -0.773714 -0.773685 -0.773654 -0.773623 -0.773592 -0.773563 -0.773537 -0.773513 