VARIABLES = "Cell" "Mode 0" "Mode 1" "Mode 2" "Mode 3" "Mode 4" "Mode 5" "Mode 6" "Mode 7" "Mode 8" "Mode 9" 
ZONE T = Iteration431
0 -0.852378 -0.852359 -0.852341 -0.852323 -0.852305 -0.852288 -0.85227 -0.852253 -0.852236 -0.852219 
1 -0.852378 -0.852359 -0.852341 -0.852323 -0.852305 -0.852288 -0.85227 -0.852253 -0.852236 -0.852219 
2 -0.852378 -0.852359 -0.852341 -0.852323 -0.852305 -0.852288 -0.85227 -0.852253 -0.852236 -0.852219 
3 -0.852378 -0.852359 -0.852341 -0.852323 -0.852305 -0.852288 -0.85227 -0.852253 -0.852236 -0.852219 
4 -0.852378 -0.852359 -0.852341 -0.852323 -0.852305 -0.852288 -0.85227 -0.852253 -0.852236 -0.852219 
5 -0.852378 -0.852359 -0.852341 -0.852323 -0.852305 -0.852288 -0.85227 -0.852253 -0.852236 -0.852219 
6 -0.852378 -0.852359 -0.852341 -0.852323 -0.852305 -0.852288 -0.85227 -0.852253 -0.852236 -0.852219 
7 -0.852378 -0.852359 -0.852341 -0.852323 -0.852305 -0.852288 -0.85227 -0.852253 -0.852236 -0.852219 
8 -0.852378 -0.852359 -0.852341 -0.852323 -0.852305 -0.852288 -0.85227 -0.852253 -0.852236 -0.852219 
9 -0.852378 -0.852359 -0.852341 -0.852323 -0.852305 -0.852288 -0.85227 -0.852253 -0.852236 -0.852219 
10 -0.852378 -0.852359 -0.852341 -0.852323 -0.852305 -0.852288 -0.85227 -0.852253 -0.852236 -0.852219 
11 -0.852378 -0.852359 -0.852341 -0.852323 -0.852305 -0.852288 -0.85227 -0.852253 -0.852236 -0.852219 
12 -0.852378 -0.852359 -0.852341 -0.852323 -0.852305 -0.852288 -0.85227 -0.852253 -0.852236 -0.852219 
13 -0.852378 -0.852359 -0.852341 -0.852323 -0.852305 -0.852288 -0.85227 -0.852253 -0.852236 -0.852219 
14 -0.852378 -0.852359 -0.852341 -0.852323 -0.852305 -0.852288 -0.85227 -0.852253 -0.852236 -0.852219 
15 -0.852378 -0.852359 -0.852341 -0.852323 -0.852305 -0.852288 -0.85227 -0.852253 -0.852236 -0.852219 
16 -0.852378 -0.852359 -0.852341 -0.852323 -0.852305 -0.852288 -0.85227 -0.852253 -0.852236 -0.852219 
17 -0.852378 -0.852359 -0.852341 -0.852323 -0.852305 -0.852288 -0.85227 -0.852253 -0.852236 -0.852219 
18 -0.852378 -0.852359 -0.852341 -0.852323 -0.852305 -0.852288 -0.85227 -0.852253 -0.852236 -0.852219 
19 -0.852378 -0.852359 -0.852341 -0.852323 -0.852305 -0.852288 -0.85227 -0.852253 -0.852236 -0.852219 
20 -0.852378 -0.852359 -0.852341 -0.852323 -0.852305 -0.852288 -0.85227 -0.852253 -0.852236 -0.852219 
21 -0.852378 -0.852359 -0.852341 -0.852323 -0.852305 -0.852288 -0.85227 -0.852253 -0.852236 -0.852219 
22 -0.852378 -0.852359 -0.852341 -0.852323 -0.852305 -0.852288 -0.85227 -0.852253 -0.852236 -0.852219 
23 -0.852378 -0.852359 -0.852341 -0.852323 -0.852305 -0.852288 -0.85227 -0.852253 -0.852236 -0.852219 
24 -0.852378 -0.852359 -0.852341 -0.852323 -0.852305 -0.852288 -0.85227 -0.852253 -0.852236 -0.852219 
25 -0.852378 -0.852359 -0.852341 -0.852323 -0.852305 -0.852288 -0.85227 -0.852253 -0.852236 -0.852219 
26 -0.852378 -0.852359 -0.852341 -0.852323 -0.852305 -0.852288 -0.85227 -0.852253 -0.852236 -0.852219 
27 -0.852378 -0.852359 -0.852341 -0.852323 -0.852305 -0.852288 -0.85227 -0.852253 -0.852236 -0.852219 
28 -0.852378 -0.852359 -0.852341 -0.852323 -0.852305 -0.852288 -0.85227 -0.852253 -0.852236 -0.852219 
29 -0.852378 -0.852359 -0.852341 -0.852323 -0.852305 -0.852288 -0.85227 -0.852253 -0.852236 -0.852219 
30 -0.852378 -0.852359 -0.852341 -0.852323 -0.852305 -0.852288 -0.85227 -0.852253 -0.852236 -0.852219 
31 -0.852378 -0.852359 -0.852341 -0.852323 -0.852305 -0.852288 -0.85227 -0.852253 -0.852236 -0.852219 
32 -0.852378 -0.852359 -0.852341 -0.852323 -0.852305 -0.852288 -0.85227 -0.852253 -0.852236 -0.852219 
33 -0.852378 -0.852359 -0.852341 -0.852323 -0.852305 -0.852288 -0.85227 -0.852253 -0.852236 -0.852219 
34 -0.852378 -0.852359 -0.852341 -0.852323 -0.852305 -0.852288 -0.85227 -0.852253 -0.852236 -0.852219 
35 -0.852378 -0.852359 -0.852341 -0.852323 -0.852305 -0.852288 -0.85227 -0.852253 -0.852236 -0.852219 
36 -0.852378 -0.852359 -0.852341 -0.852323 -0.852305 -0.852288 -0.85227 -0.852253 -0.852236 -0.852219 
37 -0.852378 -0.852359 -0.852341 -0.852323 -0.852305 -0.852288 -0.85227 -0.852253 -0.852236 -0.852219 
38 -0.852378 -0.852359 -0.852341 -0.852323 -0.852305 -0.852288 -0.85227 -0.852253 -0.852236 -0.852219 
39 -0.852378 -0.852359 -0.852341 -0.852323 -0.852305 -0.852288 -0.85227 -0.852253 -0.852236 -0.852219 
40 -0.852378 -0.852359 -0.852341 -0.852323 -0.852305 -0.852288 -0.85227 -0.852253 -0.852236 -0.852219 
41 -0.852378 -0.852359 -0.852341 -0.852323 -0.852305 -0.852288 -0.85227 -0.852253 -0.852236 -0.852219 
42 -0.852378 -0.852359 -0.852341 -0.852323 -0.852305 -0.852288 -0.85227 -0.852253 -0.852236 -0.852219 
43 -0.852378 -0.852359 -0.852341 -0.852323 -0.852305 -0.852288 -0.85227 -0.852253 -0.852236 -0.852219 
44 -0.852378 -0.852359 -0.852341 -0.852323 -0.852305 -0.852288 -0.85227 -0.852253 -0.852236 -0.852219 
45 -0.852378 -0.852359 -0.852341 -0.852323 -0.852305 -0.852288 -0.85227 -0.852253 -0.852236 -0.852219 
46 -0.852378 -0.852359 -0.852341 -0.852323 -0.852305 -0.852288 -0.85227 -0.852253 -0.852236 -0.852219 
47 -0.852378 -0.852359 -0.852341 -0.852323 -0.852305 -0.852288 -0.85227 -0.852253 -0.852236 -0.852219 
48 -0.852378 -0.852359 -0.852341 -0.852323 -0.852305 -0.852288 -0.85227 -0.852253 -0.852236 -0.852219 
49 -0.852378 -0.852359 -0.852341 -0.852323 -0.852305 -0.852288 -0.85227 -0.852253 -0.852236 -0.852219 
50 -0.852378 -0.852359 -0.852341 -0.852323 -0.852305 -0.852288 -0.85227 -0.852253 -0.852236 -0.852219 
51 -0.852378 -0.852359 -0.852341 -0.852323 -0.852305 -0.852288 -0.85227 -0.852253 -0.852236 -0.852219 
52 -0.852378 -0.852359 -0.852341 -0.852323 -0.852305 -0.852288 -0.85227 -0.852253 -0.852236 -0.852219 
53 -0.852378 -0.852359 -0.852341 -0.852323 -0.852305 -0.852288 -0.85227 -0.852253 -0.852236 -0.852219 
54 -0.852378 -0.852359 -0.852341 -0.852323 -0.852305 -0.852288 -0.85227 -0.852253 -0.852236 -0.852219 
55 -0.852378 -0.852359 -0.852341 -0.852323 -0.852305 -0.852288 -0.85227 -0.852253 -0.852236 -0.852219 
56 -0.852378 -0.852359 -0.852341 -0.852323 -0.852305 -0.852288 -0.85227 -0.852253 -0.852236 -0.852219 
57 -0.852378 -0.852359 -0.852341 -0.852323 -0.852305 -0.852288 -0.85227 -0.852253 -0.852236 -0.852219 
58 -0.852378 -0.852359 -0.852341 -0.852323 -0.852305 -0.852288 -0.85227 -0.852253 -0.852236 -0.852219 
59 -0.852378 -0.85236 -0.852341 -0.852323 -0.852305 -0.852288 -0.85227 -0.852253 -0.852236 -0.852219 
60 -0.852378 -0.852359 -0.852341 -0.852323 -0.852305 -0.852288 -0.85227 -0.852253 -0.852236 -0.852219 
61 -0.852378 -0.852359 -0.852341 -0.852323 -0.852305 -0.852288 -0.85227 -0.852253 -0.852236 -0.852219 
62 -0.852378 -0.852359 -0.852341 -0.852323 -0.852305 -0.852288 -0.85227 -0.852253 -0.852236 -0.852219 
63 -0.852378 -0.852359 -0.852341 -0.852323 -0.852305 -0.852288 -0.85227 -0.852253 -0.852236 -0.852219 
64 -0.852378 -0.852359 -0.852341 -0.852323 -0.852305 -0.852288 -0.85227 -0.852253 -0.852236 -0.852219 
65 -0.852377 -0.852359 -0.852341 -0.852323 -0.852305 -0.852287 -0.85227 -0.852252 -0.852235 -0.852219 
66 -0.852378 -0.852359 -0.852341 -0.852323 -0.852305 -0.852288 -0.85227 -0.852253 -0.852236 -0.852219 
67 -0.852378 -0.85236 -0.852342 -0.852324 -0.852306 -0.852288 -0.85227 -0.852253 -0.852236 -0.852219 
68 -0.852378 -0.85236 -0.852342 -0.852324 -0.852306 -0.852288 -0.85227 -0.852253 -0.852236 -0.852219 
69 -0.852378 -0.852359 -0.852341 -0.852323 -0.852305 -0.852288 -0.85227 -0.852253 -0.852236 -0.852219 
70 -0.852378 -0.852359 -0.852341 -0.852323 -0.852305 -0.852288 -0.85227 -0.852253 -0.852236 -0.852219 
71 -0.852378 -0.852359 -0.852341 -0.852323 -0.852305 -0.852288 -0.85227 -0.852253 -0.852236 -0.852219 
72 -0.852379 -0.85236 -0.852342 -0.852324 -0.852306 -0.852289 -0.852271 -0.852254 -0.852237 -0.85222 
73 -0.852378 -0.85236 -0.852341 -0.852323 -0.852306 -0.852288 -0.85227 -0.852253 -0.852236 -0.852219 
74 -0.852378 -0.852359 -0.852341 -0.852323 -0.852305 -0.852288 -0.85227 -0.852253 -0.852236 -0.852219 
75 -0.852379 -0.852361 -0.852343 -0.852325 -0.852307 -0.852289 -0.852272 -0.852254 -0.852237 -0.852221 
76 -0.852378 -0.852359 -0.852341 -0.852323 -0.852305 -0.852288 -0.85227 -0.852253 -0.852236 -0.852219 
77 -0.852377 -0.852359 -0.852341 -0.852323 -0.852305 -0.852288 -0.85227 -0.852253 -0.852236 -0.852219 
78 -0.852378 -0.85236 -0.852341 -0.852323 -0.852306 -0.852288 -0.85227 -0.852253 -0.852236 -0.852219 
79 -0.852381 -0.852363 -0.852344 -0.852326 -0.852308 -0.85229 -0.852272 -0.852254 -0.852237 -0.85222 
80 -0.852372 -0.852354 -0.852336 -0.852318 -0.8523 -0.852283 -0.852265 -0.852248 -0.852231 -0.852215 
81 -0.852395 -0.852376 -0.852358 -0.85234 -0.852322 -0.852304 -0.852286 -0.852268 -0.852251 -0.852234 
82 -0.852373 -0.852355 -0.852336 -0.852318 -0.8523 -0.852282 -0.852264 -0.852247 -0.85223 -0.852213 
83 -0.852379 -0.852361 -0.852343 -0.852325 -0.852307 -0.852289 -0.852271 -0.852254 -0.852237 -0.85222 
84 -0.852371 -0.852352 -0.852334 -0.852316 -0.852299 -0.852281 -0.852263 -0.852246 -0.852229 -0.852213 
85 -0.852385 -0.852367 -0.852348 -0.85233 -0.852311 -0.852293 -0.852275 -0.852257 -0.85224 -0.852223 
86 -0.852372 -0.852354 -0.852336 -0.852318 -0.8523 -0.852283 -0.852265 -0.852248 -0.852231 -0.852214 
87 -0.852378 -0.852359 -0.852341 -0.852323 -0.852305 -0.852288 -0.85227 -0.852253 -0.852236 -0.852219 
88 -0.852369 -0.852351 -0.852333 -0.852315 -0.852298 -0.85228 -0.852263 -0.852246 -0.852229 -0.852212 
89 -0.852381 -0.852365 -0.85235 -0.852334 -0.852318 -0.852303 -0.852287 -0.852272 -0.852257 -0.852242 
90 -0.852378 -0.85236 -0.852342 -0.852324 -0.852306 -0.852288 -0.85227 -0.852253 -0.852236 -0.852219 
91 -0.852285 -0.852266 -0.852247 -0.852228 -0.852209 -0.852191 -0.852172 -0.852154 -0.852137 -0.852119 
92 -0.852407 -0.85239 -0.852374 -0.852358 -0.852341 -0.852325 -0.852309 -0.852293 -0.852278 -0.852262 
93 -0.852545 -0.852529 -0.852513 -0.852497 -0.85248 -0.852464 -0.852448 -0.852433 -0.852417 -0.852401 
94 -0.852378 -0.852359 -0.852341 -0.852323 -0.852305 -0.852288 -0.85227 -0.852253 -0.852236 -0.852219 
95 -0.852456 -0.852436 -0.852416 -0.852395 -0.852375 -0.852355 -0.852336 -0.852316 -0.852297 -0.852278 
96 -0.852549 -0.852526 -0.852502 -0.852479 -0.852455 -0.852432 -0.852409 -0.852386 -0.852364 -0.852342 
97 -0.852542 -0.852527 -0.852513 -0.852499 -0.852484 -0.85247 -0.852455 -0.852441 -0.852427 -0.852413 
98 -0.852379 -0.852361 -0.852343 -0.852325 -0.852307 -0.852289 -0.852271 -0.852254 -0.852237 -0.85222 
99 -0.851861 -0.851838 -0.851815 -0.851792 -0.851769 -0.851747 -0.851726 -0.851705 -0.851684 -0.851664 
100 -0.85268 -0.852682 -0.852685 -0.852687 -0.852689 -0.85269 -0.852692 -0.852694 -0.852696 -0.852697 
101 -0.852411 -0.852393 -0.852375 -0.852357 -0.852339 -0.852321 -0.852304 -0.852286 -0.852269 -0.852252 
102 -0.851545 -0.851534 -0.851524 -0.851514 -0.851504 -0.851495 -0.851486 -0.851478 -0.85147 -0.851463 
103 -0.852489 -0.85247 -0.852452 -0.852433 -0.852415 -0.852397 -0.852379 -0.852361 -0.852343 -0.852326 
104 -0.852715 -0.8527 -0.852685 -0.852671 -0.852656 -0.852642 -0.852628 -0.852615 -0.852602 -0.852589 
105 -0.853438 -0.853403 -0.853369 -0.853334 -0.8533 -0.853266 -0.853232 -0.853198 -0.853164 -0.85313 
106 -0.852343 -0.852324 -0.852306 -0.852288 -0.85227 -0.852253 -0.852235 -0.852218 -0.852201 -0.852184 
107 -0.852378 -0.852359 -0.852341 -0.852323 -0.852305 -0.852288 -0.85227 -0.852253 -0.852236 -0.852219 
108 -0.852026 -0.852015 -0.852003 -0.851991 -0.85198 -0.851969 -0.851958 -0.851947 -0.851937 -0.851926 
109 -0.850916 -0.850893 -0.850871 -0.850849 -0.850827 -0.850806 -0.850785 -0.850764 -0.850744 -0.850725 
110 -0.852155 -0.852111 -0.852066 -0.852022 -0.851977 -0.851933 -0.851888 -0.851843 -0.851799 -0.851754 
111 -0.849142 -0.849122 -0.849103 -0.849086 -0.849069 -0.849053 -0.849039 -0.849026 -0.849014 -0.849004 
112 -0.852542 -0.852526 -0.85251 -0.852494 -0.852478 -0.852462 -0.852447 -0.852431 -0.852416 -0.852401 
113 -0.852378 -0.852359 -0.852341 -0.852323 -0.852305 -0.852288 -0.85227 -0.852253 -0.852236 -0.852219 
114 -0.850313 -0.85031 -0.850307 -0.850304 -0.850302 -0.8503 -0.850298 -0.850297 -0.850296 -0.850296 
115 -0.85482 -0.85481 -0.854799 -0.854788 -0.854776 -0.854765 -0.854753 -0.854741 -0.854728 -0.854715 
116 -0.850698 -0.850698 -0.850699 -0.8507 -0.850701 -0.850703 -0.850704 -0.850707 -0.850709 -0.850713 
117 -0.852279 -0.85222 -0.85216 -0.852101 -0.852041 -0.851981 -0.851922 -0.851863 -0.851803 -0.851745 
118 -0.850882 -0.850872 -0.850862 -0.850851 -0.850841 -0.850831 -0.850821 -0.850812 -0.850802 -0.850793 
119 -0.849839 -0.849806 -0.849773 -0.84974 -0.849708 -0.849675 -0.849643 -0.849611 -0.849579 -0.849547 
120 -0.853745 -0.85371 -0.853675 -0.85364 -0.853604 -0.853569 -0.853533 -0.853498 -0.853462 -0.853426 
121 -0.851352 -0.851339 -0.851328 -0.851316 -0.851306 -0.851296 -0.851288 -0.85128 -0.851273 -0.851267 
122 -0.852694 -0.85268 -0.852665 -0.852649 -0.852633 -0.852616 -0.852598 -0.852581 -0.852562 -0.852543 
123 -0.850563 -0.850525 -0.850487 -0.850448 -0.850409 -0.85037 -0.850331 -0.850292 -0.850253 -0.850214 
124 -0.852265 -0.852258 -0.852252 -0.852246 -0.85224 -0.852235 -0.852231 -0.852227 -0.852224 -0.852222 
125 -0.853153 -0.853138 -0.853123 -0.853109 -0.853094 -0.85308 -0.853067 -0.853053 -0.853041 -0.853028 
126 -0.85238 -0.852362 -0.852343 -0.852325 -0.852307 -0.852289 -0.852272 -0.852254 -0.852237 -0.85222 
127 -0.852278 -0.852276 -0.852274 -0.852273 -0.852271 -0.85227 -0.852269 -0.852268 -0.852268 -0.852268 
128 -0.853439 -0.853449 -0.85346 -0.853471 -0.853482 -0.853493 -0.853505 -0.853518 -0.853531 -0.853545 
129 -0.85388 -0.853833 -0.853787 -0.85374 -0.853693 -0.853645 -0.853598 -0.853551 -0.853504 -0.853458 
130 -0.854291 -0.854242 -0.854193 -0.854144 -0.854095 -0.854045 -0.853996 -0.853946 -0.853897 -0.853848 
131 -0.85138 -0.851346 -0.851311 -0.851275 -0.851239 -0.851203 -0.851166 -0.85113 -0.851093 -0.851056 
132 -0.851441 -0.851448 -0.851456 -0.851463 -0.85147 -0.851477 -0.851484 -0.851491 -0.851498 -0.851504 
133 -0.853291 -0.853254 -0.853216 -0.853178 -0.853141 -0.853103 -0.853066 -0.853028 -0.852991 -0.852955 
134 -0.852169 -0.852163 -0.852158 -0.852153 -0.852149 -0.852146 -0.852143 -0.852141 -0.85214 -0.852139 
135 -0.851704 -0.851729 -0.851754 -0.85178 -0.851805 -0.851831 -0.851856 -0.851882 -0.851908 -0.851934 
136 -0.852419 -0.8524 -0.852381 -0.852363 -0.852344 -0.852326 -0.852308 -0.85229 -0.852272 -0.852255 
137 -0.85166 -0.85164 -0.851619 -0.851599 -0.851578 -0.851558 -0.851539 -0.851519 -0.8515 -0.851481 
138 -0.854588 -0.854529 -0.85447 -0.854411 -0.854351 -0.854292 -0.854232 -0.854173 -0.854114 -0.854055 
139 -0.849459 -0.849437 -0.849415 -0.849394 -0.849374 -0.849354 -0.849335 -0.849317 -0.8493 -0.849284 
140 -0.851391 -0.851371 -0.851351 -0.851331 -0.851312 -0.851293 -0.851274 -0.851256 -0.851238 -0.85122 
141 -0.855825 -0.855743 -0.85566 -0.855576 -0.855491 -0.855406 -0.85532 -0.855233 -0.855146 -0.855059 
142 -0.848702 -0.848717 -0.848733 -0.848749 -0.848767 -0.848786 -0.848806 -0.848826 -0.848848 -0.848871 
143 -0.855414 -0.855416 -0.855419 -0.855421 -0.855424 -0.855428 -0.855431 -0.855435 -0.85544 -0.855444 
144 -0.852839 -0.852781 -0.852723 -0.852666 -0.85261 -0.852555 -0.852501 -0.852449 -0.852397 -0.852347 
145 -0.851313 -0.851332 -0.851351 -0.851369 -0.851387 -0.851404 -0.851421 -0.851437 -0.851453 -0.851468 
146 -0.85501 -0.85495 -0.85489 -0.85483 -0.85477 -0.854711 -0.854651 -0.854592 -0.854533 -0.854475 
147 -0.854741 -0.854751 -0.854762 -0.854772 -0.854783 -0.854793 -0.854804 -0.854815 -0.854827 -0.854839 
148 -0.852482 -0.852482 -0.852481 -0.852479 -0.852476 -0.852472 -0.852467 -0.852462 -0.852455 -0.852448 
149 -0.85588 -0.855823 -0.855766 -0.855709 -0.855653 -0.855596 -0.85554 -0.855484 -0.855428 -0.855373 
150 -0.857299 -0.857305 -0.857311 -0.857317 -0.857323 -0.857329 -0.857335 -0.857341 -0.857347 -0.857354 
151 -0.849362 -0.849358 -0.849354 -0.849352 -0.84935 -0.849348 -0.849348 -0.849349 -0.84935 -0.849353 
152 -0.851876 -0.851821 -0.851766 -0.851711 -0.851657 -0.851602 -0.851548 -0.851494 -0.85144 -0.851387 
153 -0.851464 -0.851415 -0.851366 -0.851319 -0.851273 -0.851228 -0.851185 -0.851142 -0.851101 -0.851061 
154 -0.849411 -0.849371 -0.849332 -0.849292 -0.849252 -0.849213 -0.849174 -0.849136 -0.849098 -0.849061 
155 -0.846785 -0.84679 -0.846795 -0.846801 -0.846808 -0.846816 -0.846825 -0.846835 -0.846846 -0.846859 
156 -0.8579 -0.857814 -0.857729 -0.857646 -0.857563 -0.857482 -0.857402 -0.857324 -0.857247 -0.857173 
157 -0.858246 -0.85819 -0.858136 -0.858082 -0.85803 -0.857979 -0.857929 -0.85788 -0.857833 -0.857787 
158 -0.847265 -0.847287 -0.84731 -0.847332 -0.847355 -0.847379 -0.847402 -0.847426 -0.84745 -0.847475 
159 -0.850747 -0.850724 -0.850701 -0.850679 -0.850656 -0.850634 -0.850612 -0.850591 -0.850569 -0.850549 
160 -0.858654 -0.858674 -0.858694 -0.858715 -0.858735 -0.858755 -0.858775 -0.858795 -0.858815 -0.858835 
161 -0.837955 -0.837923 -0.837891 -0.83786 -0.83783 -0.8378 -0.837771 -0.837743 -0.837715 -0.837689 
162 -0.847499 -0.847461 -0.847424 -0.847386 -0.847349 -0.847311 -0.847274 -0.847236 -0.847198 -0.84716 
163 -0.842689 -0.842684 -0.84268 -0.842676 -0.842673 -0.84267 -0.842667 -0.842664 -0.842661 -0.842657 
164 -0.859287 -0.859212 -0.859136 -0.859059 -0.858981 -0.858904 -0.858827 -0.85875 -0.858674 -0.8586 
165 -0.860399 -0.860371 -0.860345 -0.860322 -0.8603 -0.860281 -0.860264 -0.860249 -0.860236 -0.860226 
166 -0.836917 -0.836892 -0.836867 -0.836843 -0.836818 -0.836794 -0.836769 -0.836745 -0.836721 -0.836698 
167 -0.854687 -0.854631 -0.854574 -0.854515 -0.854455 -0.854394 -0.854333 -0.85427 -0.854207 -0.854144 
168 -0.840016 -0.839984 -0.839952 -0.839921 -0.839889 -0.839857 -0.839825 -0.839794 -0.839762 -0.83973 
169 -0.861107 -0.861122 -0.861138 -0.861155 -0.861174 -0.861193 -0.861214 -0.861235 -0.861256 -0.861278 
170 -0.864769 -0.864704 -0.864639 -0.864571 -0.864503 -0.864434 -0.864364 -0.864294 -0.864225 -0.864157 
171 -0.864949 -0.864889 -0.864831 -0.864774 -0.864719 -0.864665 -0.864614 -0.864566 -0.864521 -0.86448 
172 -0.842565 -0.842529 -0.842494 -0.84246 -0.842428 -0.842397 -0.842368 -0.842341 -0.842315 -0.842291 
173 -0.852378 -0.852359 -0.852341 -0.852323 -0.852305 -0.852288 -0.85227 -0.852253 -0.852236 -0.852219 
174 -0.862456 -0.862436 -0.862415 -0.862395 -0.862373 -0.862349 -0.862325 -0.862298 -0.86227 -0.86224 
175 -0.87254 -0.872521 -0.8725 -0.872474 -0.872446 -0.872413 -0.872377 -0.872337 -0.872294 -0.872247 
176 -0.844574 -0.84454 -0.844506 -0.844471 -0.844435 -0.8444 -0.844363 -0.844327 -0.84429 -0.844253 
177 -0.835017 -0.83497 -0.834921 -0.834873 -0.834824 -0.834775 -0.834726 -0.834678 -0.83463 -0.834584 
178 -0.870613 -0.87061 -0.870603 -0.870594 -0.87058 -0.870562 -0.870539 -0.870511 -0.870478 -0.87044 
179 -0.852378 -0.852359 -0.852341 -0.852323 -0.852305 -0.852288 -0.85227 -0.852253 -0.852236 -0.852219 
180 -0.849489 -0.849486 -0.849483 -0.84948 -0.849477 -0.849473 -0.849467 -0.849459 -0.849449 -0.849437 
181 -0.873694 -0.873661 -0.873626 -0.87359 -0.873553 -0.873515 -0.873478 -0.87344 -0.873402 -0.873365 
182 -0.829215 -0.829175 -0.829133 -0.82909 -0.829045 -0.828999 -0.828952 -0.828903 -0.828854 -0.828804 
183 -0.8364 -0.836372 -0.836342 -0.836311 -0.836278 -0.836242 -0.836206 -0.836167 -0.836126 -0.836084 
184 -0.835356 -0.835297 -0.835241 -0.835188 -0.835139 -0.835093 -0.835052 -0.835014 -0.83498 -0.83495 
185 -0.877046 -0.877026 -0.877001 -0.876971 -0.876936 -0.876896 -0.876853 -0.876804 -0.876752 -0.876696 
186 -0.887589 -0.887586 -0.887582 -0.887578 -0.887573 -0.887567 -0.887559 -0.887548 -0.887535 -0.887518 
187 -0.835081 -0.835028 -0.834971 -0.83491 -0.834846 -0.834778 -0.834708 -0.834636 -0.834562 -0.834487 
188 -0.860921 -0.860896 -0.860875 -0.860856 -0.860839 -0.860825 -0.860813 -0.860802 -0.860792 -0.860783 
189 -0.884132 -0.884122 -0.884116 -0.884114 -0.884114 -0.884117 -0.884121 -0.884127 -0.884133 -0.88414 
190 -0.853818 -0.85378 -0.853739 -0.853698 -0.853656 -0.853612 -0.853568 -0.853522 -0.853475 -0.853428 
191 -0.852378 -0.852359 -0.852341 -0.852323 -0.852305 -0.852288 -0.85227 -0.852253 -0.852236 -0.852219 
192 -0.807457 -0.807406 -0.807354 -0.807302 -0.807249 -0.807195 -0.807141 -0.807088 -0.807034 -0.806981 
193 -0.852378 -0.852359 -0.852341 -0.852323 -0.852305 -0.852288 -0.85227 -0.852253 -0.852236 -0.852219 
194 -0.862842 -0.862841 -0.862841 -0.862841 -0.862841 -0.862842 -0.862843 -0.862845 -0.862847 -0.86285 
195 -0.850926 -0.850856 -0.850793 -0.850737 -0.850689 -0.850648 -0.850614 -0.850586 -0.850566 -0.850551 
196 -0.846709 -0.846719 -0.84673 -0.846742 -0.846754 -0.846767 -0.84678 -0.846794 -0.846809 -0.846824 
197 -0.853964 -0.853907 -0.85385 -0.853793 -0.853735 -0.853677 -0.853619 -0.85356 -0.853502 -0.853443 
198 -0.852378 -0.852359 -0.852341 -0.852323 -0.852305 -0.852288 -0.85227 -0.852253 -0.852236 -0.852219 
199 -0.795149 -0.795131 -0.795108 -0.79508 -0.795047 -0.795008 -0.794964 -0.794915 -0.794861 -0.794803 
200 -0.829877 -0.829805 -0.829738 -0.829676 -0.82962 -0.82957 -0.829526 -0.829488 -0.829456 -0.829428 
201 -0.902428 -0.9024 -0.902378 -0.90236 -0.902348 -0.90234 -0.902336 -0.902336 -0.902339 -0.902344 
202 -0.852378 -0.852359 -0.852341 -0.852323 -0.852305 -0.852288 -0.85227 -0.852253 -0.852236 -0.852219 
203 -0.871849 -0.87182 -0.87179 -0.87176 -0.87173 -0.871699 -0.87167 -0.87164 -0.871612 -0.871585 
204 -0.853404 -0.853404 -0.853403 -0.853403 -0.853402 -0.853402 -0.853401 -0.853401 -0.853401 -0.853401 
205 -0.895155 -0.895154 -0.895154 -0.895155 -0.895155 -0.895155 -0.895154 -0.895151 -0.895147 -0.89514 
206 -0.852378 -0.852359 -0.852341 -0.852323 -0.852305 -0.852288 -0.85227 -0.852253 -0.852236 -0.852219 
207 -0.772939 -0.772879 -0.772819 -0.772758 -0.772697 -0.772636 -0.772575 -0.772515 -0.772456 -0.772398 
208 -0.855615 -0.855547 -0.855487 -0.855437 -0.855395 -0.855362 -0.855338 -0.855321 -0.855312 -0.855309 
209 -0.890731 -0.890722 -0.890712 -0.890701 -0.890688 -0.890674 -0.890659 -0.890641 -0.890621 -0.8906 
210 -0.913168 -0.913114 -0.913067 -0.913028 -0.912997 -0.912973 -0.912955 -0.912944 -0.912938 -0.912937 
211 -0.852378 -0.852359 -0.852341 -0.852323 -0.852305 -0.852288 -0.85227 -0.852253 -0.852236 -0.852219 
212 -0.852378 -0.852359 -0.852341 -0.852323 -0.852305 -0.852288 -0.85227 -0.852253 -0.852236 -0.852219 
213 -0.843086 -0.843074 -0.843064 -0.843054 -0.843047 -0.84304 -0.843035 -0.843031 -0.843028 -0.843026 
214 -0.760327 -0.760294 -0.760258 -0.760219 -0.760178 -0.760133 -0.760085 -0.760034 -0.759982 -0.759926 
215 -0.790195 -0.790085 -0.789984 -0.78989 -0.789807 -0.789733 -0.789669 -0.789615 -0.789572 -0.789538 
216 -0.797499 -0.797399 -0.797307 -0.797224 -0.797152 -0.797089 -0.797038 -0.796996 -0.796965 -0.796943 
217 -0.856792 -0.856802 -0.856811 -0.85682 -0.856829 -0.856839 -0.856848 -0.856857 -0.856866 -0.856875 
218 -0.837877 -0.837752 -0.83764 -0.83754 -0.837454 -0.837382 -0.837323 -0.837278 -0.837246 -0.837227 
219 -0.852857 -0.852842 -0.852827 -0.852812 -0.852798 -0.852783 -0.852769 -0.852754 -0.85274 -0.852726 
220 -0.945119 -0.945049 -0.944984 -0.944926 -0.944873 -0.944827 -0.944787 -0.944754 -0.944728 -0.944707 
221 -0.78516 -0.785068 -0.784982 -0.784901 -0.784826 -0.784758 -0.784696 -0.784642 -0.784595 -0.784555 
222 -0.729564 -0.729434 -0.729317 -0.729212 -0.72912 -0.729041 -0.728976 -0.728923 -0.728884 -0.728857 
223 -0.898296 -0.898193 -0.898098 -0.898013 -0.897936 -0.89787 -0.897813 -0.897767 -0.897731 -0.897704 
224 -0.918506 -0.918477 -0.918452 -0.918431 -0.918415 -0.918403 -0.918395 -0.91839 -0.918388 -0.918389 
225 -0.83229 -0.832252 -0.832214 -0.832174 -0.832133 -0.832092 -0.832049 -0.832006 -0.831962 -0.831917 
226 -0.798559 -0.798615 -0.798671 -0.798725 -0.798776 -0.798823 -0.798866 -0.798903 -0.798935 -0.79896 
227 -0.883834 -0.883691 -0.883557 -0.883431 -0.883316 -0.883212 -0.88312 -0.88304 -0.882973 -0.882918 
228 -0.822289 -0.822304 -0.822317 -0.822326 -0.822332 -0.822333 -0.82233 -0.822322 -0.822308 -0.82229 
229 -0.852378 -0.852359 -0.852341 -0.852323 -0.852305 -0.852288 -0.85227 -0.852253 -0.852236 -0.852219 
230 -0.852378 -0.852359 -0.852341 -0.852323 -0.852305 -0.852288 -0.85227 -0.852253 -0.852236 -0.852219 
231 -0.852378 -0.852359 -0.852341 -0.852323 -0.852305 -0.852288 -0.85227 -0.852253 -0.852236 -0.852219 
232 -1.08683 -1.08668 -1.08655 -1.08644 -1.08634 -1.08626 -1.0862 -1.08615 -1.08613 -1.08612 
233 -0.852416 -0.852397 -0.852379 -0.85236 -0.852342 -0.852323 -0.852305 -0.852287 -0.85227 -0.852253 
234 -0.979291 -0.979216 -0.979147 -0.979086 -0.979033 -0.978987 -0.978949 -0.978919 -0.978897 -0.978882 
235 -0.63847 -0.638282 -0.638101 -0.637928 -0.637765 -0.637612 -0.637472 -0.637346 -0.637233 -0.637134 
236 -0.909647 -0.909632 -0.90962 -0.909611 -0.909605 -0.909602 -0.909601 -0.909602 -0.909605 -0.90961 
237 -1.10245 -1.10229 -1.10215 -1.10202 -1.1019 -1.10181 -1.10173 -1.10167 -1.10162 -1.1016 
238 -0.853143 -0.853136 -0.853128 -0.85312 -0.853113 -0.853106 -0.853099 -0.853092 -0.853086 -0.853079 
239 -0.698587 -0.698394 -0.698206 -0.698026 -0.697855 -0.697695 -0.697548 -0.697414 -0.697295 -0.697191 
240 -0.76037 -0.760361 -0.760353 -0.760345 -0.760339 -0.760333 -0.760327 -0.76032 -0.760313 -0.760305 
241 -0.724498 -0.724423 -0.724351 -0.724281 -0.724214 -0.72415 -0.72409 -0.724034 -0.723981 -0.723933 
242 -0.852373 -0.852355 -0.852337 -0.852319 -0.852301 -0.852283 -0.852265 -0.852248 -0.852231 -0.852214 
243 -0.986011 -0.985955 -0.985904 -0.985859 -0.985819 -0.985784 -0.985754 -0.98573 -0.985712 -0.985698 
244 -1.11359 -1.11349 -1.11341 -1.11334 -1.11328 -1.11324 -1.11321 -1.11319 -1.11318 -1.11318 
245 -0.512845 -0.512721 -0.512595 -0.512469 -0.512343 -0.512219 -0.512098 -0.51198 -0.511867 -0.51176 
246 -1.04598 -1.0459 -1.04583 -1.04577 -1.04573 -1.04569 -1.04566 -1.04564 -1.04563 -1.04563 
247 -0.849457 -0.849441 -0.849426 -0.84941 -0.849395 -0.849379 -0.849364 -0.849348 -0.849333 -0.849317 
248 -0.852378 -0.852359 -0.852341 -0.852323 -0.852305 -0.852288 -0.85227 -0.852253 -0.852236 -0.852219 
249 -0.601016 -0.600903 -0.600793 -0.600685 -0.600582 -0.600483 -0.600389 -0.600302 -0.60022 -0.600146 
250 -0.813174 -0.813242 -0.813308 -0.813371 -0.81343 -0.813484 -0.813532 -0.813572 -0.813605 -0.813629 
251 -0.765889 -0.765963 -0.766036 -0.766107 -0.766175 -0.766237 -0.766295 -0.766345 -0.766388 -0.766423 
252 -0.73538 -0.735322 -0.735267 -0.735215 -0.735167 -0.735123 -0.735083 -0.735048 -0.735017 -0.73499 
253 -0.852377 -0.852359 -0.852341 -0.852323 -0.852305 -0.852288 -0.85227 -0.852253 -0.852236 -0.852219 
254 -0.883714 -0.883713 -0.883711 -0.883707 -0.8837 -0.883691 -0.883679 -0.883664 -0.883646 -0.883625 
255 -0.851888 -0.851873 -0.851858 -0.851843 -0.851828 -0.851814 -0.8518 -0.851786 -0.851772 -0.851759 
256 -0.861584 -0.861581 -0.861578 -0.861575 -0.861572 -0.861569 -0.861566 -0.861563 -0.86156 -0.861556 
257 -1.04525 -1.0452 -1.04516 -1.04512 -1.04508 -1.04505 -1.04503 -1.04501 -1.045 -1.04499 
258 -0.824826 -0.824835 -0.82484 -0.824842 -0.824839 -0.824831 -0.824818 -0.8248 -0.824777 -0.824749 
259 -0.873671 -0.873658 -0.873642 -0.873624 -0.873604 -0.873581 -0.873555 -0.873527 -0.873497 -0.873464 
260 -0.623124 -0.623084 -0.623045 -0.623004 -0.622961 -0.622918 -0.622873 -0.622827 -0.62278 -0.622732 
261 -0.993201 -0.993154 -0.993112 -0.993074 -0.993041 -0.993014 -0.992991 -0.992972 -0.992959 -0.99295 
262 -1.02556 -1.02552 -1.02548 -1.02545 -1.02542 -1.0254 -1.02538 -1.02536 -1.02535 -1.02534 
263 -0.852272 -0.852256 -0.852241 -0.852226 -0.852211 -0.852196 -0.852181 -0.852167 -0.852153 -0.852139 
264 -0.835064 -0.835036 -0.835008 -0.83498 -0.834952 -0.834925 -0.834899 -0.834874 -0.83485 -0.834827 
265 -0.708236 -0.7082 -0.708166 -0.708135 -0.708107 -0.708081 -0.708058 -0.708036 -0.708017 -0.707999 
266 -0.667662 -0.667604 -0.667545 -0.667485 -0.667425 -0.667364 -0.667304 -0.667245 -0.667186 -0.667129 
267 -0.910269 -0.910261 -0.910254 -0.910249 -0.910245 -0.910242 -0.910241 -0.91024 -0.91024 -0.910241 
268 -0.841586 -0.841596 -0.841605 -0.841613 -0.84162 -0.841625 -0.841629 -0.841632 -0.841634 -0.841636 
269 -0.852376 -0.852358 -0.85234 -0.852322 -0.852304 -0.852286 -0.852268 -0.852251 -0.852234 -0.852217 
270 -1.0064 -1.00637 -1.00634 -1.00632 -1.0063 -1.00628 -1.00627 -1.00625 -1.00624 -1.00623 
271 -0.966389 -0.966358 -0.96633 -0.966307 -0.966287 -0.966271 -0.966259 -0.966251 -0.966246 -0.966244 
272 -0.689515 -0.689513 -0.689518 -0.689527 -0.689541 -0.689558 -0.689578 -0.689599 -0.689621 -0.689642 
273 -0.772909 -0.772949 -0.772996 -0.773048 -0.773106 -0.773166 -0.773229 -0.773292 -0.773355 -0.773416 
274 -0.731028 -0.731022 -0.731019 -0.731019 -0.731022 -0.731027 -0.731034 -0.731043 -0.731054 -0.731066 
275 -0.852039 -0.852025 -0.852012 -0.851998 -0.851985 -0.851972 -0.85196 -0.851947 -0.851935 -0.851924 
276 -0.978235 -0.978212 -0.978191 -0.978173 -0.978158 -0.978145 -0.978135 -0.978128 -0.978122 -0.978119 
277 -0.852378 -0.852359 -0.852341 -0.852323 -0.852305 -0.852288 -0.85227 -0.852253 -0.852236 -0.852219 
278 -0.712711 -0.712713 -0.712714 -0.712715 -0.712714 -0.712712 -0.712708 -0.712702 -0.712694 -0.712683 
279 -0.76364 -0.763658 -0.76368 -0.763706 -0.763735 -0.763766 -0.763799 -0.763832 -0.763864 -0.763895 
280 -0.937441 -0.937422 -0.937406 -0.937391 -0.937379 -0.937369 -0.93736 -0.937354 -0.937349 -0.937346 
281 -0.830475 -0.830382 -0.8303 -0.83023 -0.83017 -0.83012 -0.83008 -0.830049 -0.830025 -0.830008 
282 -0.94042 -0.94041 -0.940402 -0.940394 -0.940387 -0.94038 -0.940374 -0.940368 -0.940362 -0.940355 
283 -0.896538 -0.896539 -0.896541 -0.896542 -0.896543 -0.896543 -0.896543 -0.896542 -0.896539 -0.896536 
284 -0.805544 -0.805492 -0.805453 -0.805425 -0.805408 -0.805401 -0.805402 -0.80541 -0.805424 -0.805441 
285 -0.744878 -0.744793 -0.744724 -0.74467 -0.744634 -0.744615 -0.744614 -0.74463 -0.744663 -0.744713 
286 -0.852378 -0.852359 -0.852341 -0.852323 -0.852305 -0.852288 -0.85227 -0.852253 -0.852236 -0.852219 
287 -0.771008 -0.770986 -0.770969 -0.77096 -0.770958 -0.770965 -0.770982 -0.771009 -0.771047 -0.771095 
288 -0.92755 -0.927541 -0.927533 -0.927526 -0.927521 -0.927516 -0.927512 -0.927509 -0.927506 -0.927504 