VARIABLES = "Cell" "Mode 0" "Mode 1" "Mode 2" "Mode 3" "Mode 4" "Mode 5" "Mode 6" "Mode 7" "Mode 8" "Mode 9" 
ZONE T = Iteration329
0 -0.851215 -0.851202 -0.851188 -0.851174 -0.851159 -0.851144 -0.851129 -0.851114 -0.851099 -0.851083 
1 -0.851215 -0.851202 -0.851188 -0.851174 -0.851159 -0.851144 -0.851129 -0.851114 -0.851099 -0.851083 
2 -0.851215 -0.851202 -0.851188 -0.851174 -0.851159 -0.851144 -0.851129 -0.851114 -0.851099 -0.851083 
3 -0.851215 -0.851202 -0.851188 -0.851174 -0.851159 -0.851144 -0.851129 -0.851114 -0.851099 -0.851083 
4 -0.851215 -0.851202 -0.851188 -0.851174 -0.851159 -0.851144 -0.851129 -0.851114 -0.851099 -0.851083 
5 -0.851215 -0.851202 -0.851188 -0.851174 -0.851159 -0.851144 -0.851129 -0.851114 -0.851099 -0.851083 
6 -0.851215 -0.851202 -0.851188 -0.851174 -0.851159 -0.851144 -0.851129 -0.851114 -0.851099 -0.851083 
7 -0.851215 -0.851202 -0.851188 -0.851174 -0.851159 -0.851144 -0.851129 -0.851114 -0.851099 -0.851083 
8 -0.851215 -0.851202 -0.851188 -0.851174 -0.851159 -0.851144 -0.851129 -0.851114 -0.851099 -0.851083 
9 -0.851215 -0.851202 -0.851188 -0.851174 -0.851159 -0.851144 -0.851129 -0.851114 -0.851099 -0.851083 
10 -0.851215 -0.851202 -0.851188 -0.851174 -0.851159 -0.851144 -0.851129 -0.851114 -0.851099 -0.851083 
11 -0.851215 -0.851202 -0.851188 -0.851174 -0.851159 -0.851144 -0.851129 -0.851114 -0.851099 -0.851083 
12 -0.851215 -0.851202 -0.851188 -0.851174 -0.851159 -0.851144 -0.851129 -0.851114 -0.851099 -0.851083 
13 -0.851215 -0.851202 -0.851188 -0.851174 -0.851159 -0.851144 -0.851129 -0.851114 -0.851099 -0.851083 
14 -0.851215 -0.851202 -0.851188 -0.851174 -0.851159 -0.851144 -0.851129 -0.851114 -0.851099 -0.851083 
15 -0.851215 -0.851202 -0.851188 -0.851174 -0.851159 -0.851144 -0.851129 -0.851114 -0.851099 -0.851083 
16 -0.851215 -0.851202 -0.851188 -0.851174 -0.851159 -0.851144 -0.851129 -0.851114 -0.851099 -0.851083 
17 -0.851215 -0.851202 -0.851188 -0.851174 -0.851159 -0.851144 -0.851129 -0.851114 -0.851099 -0.851083 
18 -0.851215 -0.851202 -0.851188 -0.851174 -0.851159 -0.851144 -0.851129 -0.851114 -0.851099 -0.851083 
19 -0.851215 -0.851202 -0.851188 -0.851174 -0.851159 -0.851144 -0.851129 -0.851114 -0.851099 -0.851083 
20 -0.851215 -0.851202 -0.851188 -0.851174 -0.851159 -0.851144 -0.851129 -0.851114 -0.851099 -0.851083 
21 -0.851215 -0.851202 -0.851188 -0.851174 -0.851159 -0.851144 -0.851129 -0.851114 -0.851099 -0.851083 
22 -0.851215 -0.851202 -0.851188 -0.851174 -0.851159 -0.851144 -0.851129 -0.851114 -0.851099 -0.851083 
23 -0.851215 -0.851202 -0.851188 -0.851174 -0.851159 -0.851144 -0.851129 -0.851114 -0.851099 -0.851083 
24 -0.851215 -0.851202 -0.851188 -0.851174 -0.851159 -0.851144 -0.851129 -0.851114 -0.851099 -0.851083 
25 -0.851215 -0.851202 -0.851188 -0.851174 -0.851159 -0.851144 -0.851129 -0.851114 -0.851099 -0.851083 
26 -0.851215 -0.851202 -0.851188 -0.851174 -0.851159 -0.851144 -0.851129 -0.851114 -0.851099 -0.851083 
27 -0.851215 -0.851202 -0.851188 -0.851174 -0.851159 -0.851144 -0.851129 -0.851114 -0.851099 -0.851083 
28 -0.851215 -0.851202 -0.851188 -0.851174 -0.851159 -0.851144 -0.851129 -0.851114 -0.851099 -0.851083 
29 -0.851215 -0.851202 -0.851188 -0.851174 -0.851159 -0.851144 -0.851129 -0.851114 -0.851099 -0.851083 
30 -0.851215 -0.851202 -0.851188 -0.851174 -0.851159 -0.851144 -0.851129 -0.851114 -0.851099 -0.851083 
31 -0.851215 -0.851202 -0.851188 -0.851174 -0.851159 -0.851144 -0.851129 -0.851114 -0.851099 -0.851083 
32 -0.851215 -0.851202 -0.851188 -0.851174 -0.851159 -0.851144 -0.851129 -0.851114 -0.851099 -0.851083 
33 -0.851215 -0.851202 -0.851188 -0.851174 -0.851159 -0.851144 -0.851129 -0.851114 -0.851099 -0.851083 
34 -0.851215 -0.851202 -0.851188 -0.851174 -0.851159 -0.851144 -0.851129 -0.851114 -0.851099 -0.851083 
35 -0.851215 -0.851202 -0.851188 -0.851174 -0.851159 -0.851144 -0.851129 -0.851114 -0.851099 -0.851083 
36 -0.851215 -0.851202 -0.851188 -0.851174 -0.851159 -0.851144 -0.851129 -0.851114 -0.851099 -0.851083 
37 -0.851215 -0.851202 -0.851188 -0.851174 -0.851159 -0.851144 -0.851129 -0.851114 -0.851099 -0.851083 
38 -0.851215 -0.851202 -0.851188 -0.851174 -0.851159 -0.851144 -0.851129 -0.851114 -0.851099 -0.851083 
39 -0.851215 -0.851202 -0.851188 -0.851174 -0.851159 -0.851144 -0.851129 -0.851114 -0.851099 -0.851083 
40 -0.851215 -0.851202 -0.851188 -0.851174 -0.851159 -0.851144 -0.851129 -0.851114 -0.851099 -0.851083 
41 -0.851215 -0.851202 -0.851188 -0.851174 -0.851159 -0.851144 -0.851129 -0.851114 -0.851099 -0.851083 
42 -0.851215 -0.851202 -0.851188 -0.851174 -0.851159 -0.851144 -0.851129 -0.851114 -0.851099 -0.851083 
43 -0.851215 -0.851202 -0.851188 -0.851174 -0.851159 -0.851144 -0.851129 -0.851114 -0.851099 -0.851083 
44 -0.851215 -0.851202 -0.851188 -0.851174 -0.851159 -0.851144 -0.851129 -0.851114 -0.851099 -0.851083 
45 -0.851215 -0.851202 -0.851188 -0.851174 -0.851159 -0.851144 -0.851129 -0.851114 -0.851099 -0.851083 
46 -0.851215 -0.851202 -0.851188 -0.851174 -0.851159 -0.851144 -0.851129 -0.851114 -0.851099 -0.851083 
47 -0.851215 -0.851202 -0.851188 -0.851174 -0.851159 -0.851144 -0.851129 -0.851114 -0.851099 -0.851083 
48 -0.851215 -0.851202 -0.851188 -0.851174 -0.851159 -0.851144 -0.851129 -0.851114 -0.851099 -0.851083 
49 -0.851215 -0.851202 -0.851188 -0.851174 -0.851159 -0.851144 -0.851129 -0.851114 -0.851099 -0.851083 
50 -0.851215 -0.851202 -0.851188 -0.851174 -0.851159 -0.851144 -0.851129 -0.851114 -0.851099 -0.851083 
51 -0.851215 -0.851202 -0.851188 -0.851174 -0.851159 -0.851144 -0.851129 -0.851114 -0.851099 -0.851083 
52 -0.851215 -0.851202 -0.851188 -0.851174 -0.851159 -0.851144 -0.851129 -0.851114 -0.851099 -0.851083 
53 -0.851215 -0.851202 -0.851188 -0.851174 -0.851159 -0.851144 -0.851129 -0.851114 -0.851099 -0.851083 
54 -0.851215 -0.851202 -0.851188 -0.851174 -0.851159 -0.851144 -0.851129 -0.851114 -0.851099 -0.851083 
55 -0.851215 -0.851202 -0.851188 -0.851174 -0.851159 -0.851144 -0.851129 -0.851114 -0.851099 -0.851083 
56 -0.851215 -0.851202 -0.851188 -0.851174 -0.851159 -0.851144 -0.851129 -0.851114 -0.851099 -0.851083 
57 -0.851215 -0.851202 -0.851188 -0.851174 -0.851159 -0.851144 -0.851129 -0.851114 -0.851099 -0.851083 
58 -0.851215 -0.851202 -0.851188 -0.851174 -0.851159 -0.851144 -0.851129 -0.851114 -0.851099 -0.851083 
59 -0.851215 -0.851202 -0.851188 -0.851174 -0.851159 -0.851144 -0.851129 -0.851114 -0.851099 -0.851083 
60 -0.851215 -0.851202 -0.851188 -0.851174 -0.851159 -0.851144 -0.851129 -0.851114 -0.851099 -0.851083 
61 -0.851215 -0.851202 -0.851188 -0.851174 -0.851159 -0.851144 -0.851129 -0.851114 -0.851099 -0.851083 
62 -0.851215 -0.851202 -0.851188 -0.851174 -0.851159 -0.851144 -0.851129 -0.851114 -0.851099 -0.851083 
63 -0.851215 -0.851202 -0.851188 -0.851174 -0.851159 -0.851144 -0.851129 -0.851114 -0.851099 -0.851083 
64 -0.851215 -0.851202 -0.851188 -0.851174 -0.851159 -0.851144 -0.851129 -0.851114 -0.851099 -0.851083 
65 -0.851215 -0.851202 -0.851188 -0.851174 -0.851159 -0.851145 -0.851129 -0.851114 -0.851099 -0.851083 
66 -0.851215 -0.851202 -0.851188 -0.851174 -0.851159 -0.851144 -0.851129 -0.851114 -0.851099 -0.851083 
67 -0.851215 -0.851202 -0.851188 -0.851174 -0.851159 -0.851144 -0.851129 -0.851114 -0.851098 -0.851083 
68 -0.851215 -0.851202 -0.851188 -0.851174 -0.851159 -0.851144 -0.851129 -0.851114 -0.851099 -0.851083 
69 -0.851215 -0.851202 -0.851188 -0.851174 -0.851159 -0.851144 -0.851129 -0.851114 -0.851099 -0.851083 
70 -0.851215 -0.851202 -0.851188 -0.851174 -0.851159 -0.851144 -0.851129 -0.851114 -0.851099 -0.851083 
71 -0.851215 -0.851202 -0.851188 -0.851174 -0.851159 -0.851144 -0.851129 -0.851114 -0.851099 -0.851083 
72 -0.851215 -0.851202 -0.851188 -0.851174 -0.851159 -0.851144 -0.851129 -0.851114 -0.851098 -0.851083 
73 -0.851215 -0.851202 -0.851188 -0.851174 -0.851159 -0.851144 -0.851129 -0.851114 -0.851099 -0.851083 
74 -0.851215 -0.851202 -0.851188 -0.851174 -0.851159 -0.851144 -0.851129 -0.851114 -0.851099 -0.851083 
75 -0.851216 -0.851202 -0.851188 -0.851174 -0.851159 -0.851145 -0.85113 -0.851114 -0.851099 -0.851083 
76 -0.851215 -0.851202 -0.851188 -0.851174 -0.851159 -0.851144 -0.851129 -0.851114 -0.851099 -0.851083 
77 -0.851215 -0.851202 -0.851188 -0.851174 -0.851159 -0.851144 -0.851129 -0.851114 -0.851099 -0.851083 
78 -0.851215 -0.851202 -0.851188 -0.851174 -0.851159 -0.851144 -0.851129 -0.851114 -0.851099 -0.851083 
79 -0.851211 -0.851198 -0.851184 -0.85117 -0.851155 -0.851141 -0.851126 -0.851111 -0.851095 -0.85108 
80 -0.851217 -0.851204 -0.85119 -0.851175 -0.851161 -0.851146 -0.851131 -0.851116 -0.8511 -0.851084 
81 -0.851216 -0.851203 -0.851189 -0.851175 -0.85116 -0.851145 -0.85113 -0.851115 -0.851099 -0.851083 
82 -0.851211 -0.851198 -0.851184 -0.85117 -0.851155 -0.851141 -0.851126 -0.851111 -0.851095 -0.85108 
83 -0.851214 -0.851201 -0.851187 -0.851173 -0.851158 -0.851143 -0.851128 -0.851113 -0.851098 -0.851082 
84 -0.851214 -0.8512 -0.851186 -0.851172 -0.851158 -0.851143 -0.851128 -0.851113 -0.851097 -0.851082 
85 -0.85121 -0.851197 -0.851183 -0.851169 -0.851155 -0.85114 -0.851125 -0.85111 -0.851094 -0.851079 
86 -0.851216 -0.851202 -0.851188 -0.851174 -0.85116 -0.851145 -0.85113 -0.851115 -0.851099 -0.851084 
87 -0.851215 -0.851202 -0.851188 -0.851174 -0.851159 -0.851144 -0.851129 -0.851114 -0.851099 -0.851083 
88 -0.851217 -0.851204 -0.85119 -0.851176 -0.851161 -0.851146 -0.851131 -0.851116 -0.8511 -0.851085 
89 -0.851256 -0.851241 -0.851227 -0.851211 -0.851196 -0.85118 -0.851164 -0.851147 -0.851131 -0.851114 
90 -0.851215 -0.851202 -0.851188 -0.851174 -0.851159 -0.851144 -0.851129 -0.851114 -0.851099 -0.851083 
91 -0.851165 -0.851153 -0.85114 -0.851127 -0.851113 -0.851099 -0.851085 -0.851071 -0.851057 -0.851042 
92 -0.851245 -0.85123 -0.851215 -0.8512 -0.851185 -0.851169 -0.851153 -0.851137 -0.85112 -0.851104 
93 -0.851259 -0.851243 -0.851227 -0.851211 -0.851194 -0.851177 -0.85116 -0.851143 -0.851126 -0.851108 
94 -0.851215 -0.851202 -0.851188 -0.851174 -0.851159 -0.851144 -0.851129 -0.851114 -0.851099 -0.851083 
95 -0.851115 -0.851102 -0.851088 -0.851073 -0.851059 -0.851044 -0.851029 -0.851013 -0.850998 -0.850982 
96 -0.851136 -0.851124 -0.851111 -0.851097 -0.851084 -0.85107 -0.851056 -0.851042 -0.851028 -0.851013 
97 -0.851285 -0.851269 -0.851252 -0.851235 -0.851218 -0.8512 -0.851183 -0.851165 -0.851146 -0.851128 
98 -0.851216 -0.851202 -0.851189 -0.851174 -0.85116 -0.851145 -0.85113 -0.851115 -0.851099 -0.851083 
99 -0.851242 -0.851238 -0.851234 -0.851229 -0.851223 -0.851217 -0.851211 -0.851204 -0.851197 -0.851189 
100 -0.851712 -0.851685 -0.851658 -0.85163 -0.851602 -0.851573 -0.851545 -0.851516 -0.851487 -0.851457 
101 -0.851237 -0.851223 -0.851209 -0.851195 -0.85118 -0.851165 -0.85115 -0.851134 -0.851119 -0.851103 
102 -0.851529 -0.85152 -0.851511 -0.851501 -0.851491 -0.85148 -0.851468 -0.851456 -0.851444 -0.851431 
103 -0.851224 -0.85121 -0.851195 -0.85118 -0.851165 -0.851149 -0.851134 -0.851118 -0.851101 -0.851085 
104 -0.851813 -0.851794 -0.851775 -0.851756 -0.851735 -0.851715 -0.851694 -0.851672 -0.851651 -0.851628 
105 -0.850973 -0.850957 -0.85094 -0.850924 -0.850907 -0.850891 -0.850874 -0.850857 -0.850841 -0.850824 
106 -0.851193 -0.851179 -0.851166 -0.851152 -0.851138 -0.851123 -0.851108 -0.851093 -0.851078 -0.851062 
107 -0.851215 -0.851202 -0.851188 -0.851174 -0.851159 -0.851144 -0.851129 -0.851114 -0.851099 -0.851083 
108 -0.851386 -0.851374 -0.851361 -0.851348 -0.851335 -0.851321 -0.851307 -0.851292 -0.851277 -0.851262 
109 -0.850645 -0.850649 -0.850652 -0.850655 -0.850657 -0.850659 -0.850661 -0.850662 -0.850663 -0.850664 
110 -0.849458 -0.849464 -0.849471 -0.849477 -0.849485 -0.849492 -0.849501 -0.849509 -0.849519 -0.849528 
111 -0.851621 -0.851647 -0.851672 -0.851695 -0.851718 -0.851739 -0.851759 -0.851778 -0.851796 -0.851813 
112 -0.851299 -0.851283 -0.851267 -0.85125 -0.851233 -0.851216 -0.851199 -0.851181 -0.851163 -0.851145 
113 -0.851215 -0.851202 -0.851188 -0.851174 -0.851159 -0.851144 -0.851129 -0.851114 -0.851099 -0.851083 
114 -0.850862 -0.850861 -0.850859 -0.850856 -0.850853 -0.85085 -0.850846 -0.850842 -0.850838 -0.850833 
115 -0.851427 -0.851367 -0.851307 -0.851247 -0.851186 -0.851126 -0.851065 -0.851004 -0.850943 -0.850882 
116 -0.851451 -0.851447 -0.851443 -0.851438 -0.851433 -0.851427 -0.851421 -0.851414 -0.851406 -0.851398 
117 -0.849897 -0.849924 -0.849951 -0.849979 -0.850007 -0.850036 -0.850065 -0.850094 -0.850124 -0.850154 
118 -0.849283 -0.84926 -0.849237 -0.849214 -0.849191 -0.849169 -0.849146 -0.849124 -0.849103 -0.849081 
119 -0.848392 -0.848401 -0.84841 -0.848419 -0.848428 -0.848438 -0.848448 -0.848458 -0.848469 -0.84848 
120 -0.850785 -0.850774 -0.850764 -0.850754 -0.850745 -0.850736 -0.850728 -0.85072 -0.850714 -0.850707 
121 -0.853208 -0.853211 -0.853213 -0.853213 -0.853211 -0.853207 -0.853202 -0.853195 -0.853186 -0.853175 
122 -0.848516 -0.848469 -0.848422 -0.848376 -0.848331 -0.848286 -0.848242 -0.848199 -0.848157 -0.848116 
123 -0.848046 -0.848056 -0.848066 -0.848078 -0.848089 -0.848102 -0.848115 -0.848129 -0.848144 -0.848159 
124 -0.853547 -0.853555 -0.853562 -0.853568 -0.853574 -0.853578 -0.853582 -0.853585 -0.853587 -0.853589 
125 -0.853136 -0.853128 -0.853118 -0.853107 -0.853095 -0.853081 -0.853067 -0.853051 -0.853035 -0.853017 
126 -0.851214 -0.8512 -0.851186 -0.851172 -0.851158 -0.851143 -0.851128 -0.851113 -0.851097 -0.851082 
127 -0.85021 -0.850149 -0.850087 -0.850025 -0.849962 -0.849899 -0.849836 -0.849772 -0.849707 -0.849643 
128 -0.855329 -0.85533 -0.85533 -0.855329 -0.855328 -0.855325 -0.855321 -0.855316 -0.85531 -0.855303 
129 -0.852716 -0.852764 -0.852812 -0.852862 -0.852912 -0.852964 -0.853016 -0.853069 -0.853123 -0.853178 
130 -0.852679 -0.852713 -0.852746 -0.85278 -0.852814 -0.852848 -0.852883 -0.852917 -0.852952 -0.852987 
131 -0.848758 -0.848742 -0.848727 -0.848711 -0.848694 -0.848677 -0.84866 -0.848642 -0.848623 -0.848604 
132 -0.848792 -0.848717 -0.848641 -0.848564 -0.848487 -0.848408 -0.848329 -0.84825 -0.84817 -0.848089 
133 -0.851199 -0.851194 -0.851188 -0.851183 -0.851178 -0.851172 -0.851167 -0.851162 -0.851156 -0.851151 
134 -0.852081 -0.852037 -0.851991 -0.851943 -0.851894 -0.851843 -0.851791 -0.851737 -0.851681 -0.851625 
135 -0.848984 -0.848881 -0.848778 -0.848674 -0.848569 -0.848465 -0.84836 -0.848255 -0.84815 -0.848046 
136 -0.851212 -0.851199 -0.851185 -0.85117 -0.851156 -0.851141 -0.851126 -0.85111 -0.851095 -0.851079 
137 -0.850836 -0.850833 -0.850829 -0.850825 -0.850821 -0.850816 -0.850811 -0.850806 -0.850801 -0.850796 
138 -0.8529 -0.852941 -0.852981 -0.853021 -0.853062 -0.853102 -0.853141 -0.853181 -0.85322 -0.853258 
139 -0.848848 -0.848797 -0.848745 -0.848692 -0.848636 -0.84858 -0.848522 -0.848462 -0.848402 -0.84834 
140 -0.849721 -0.849695 -0.849669 -0.849642 -0.849616 -0.849589 -0.849563 -0.849536 -0.84951 -0.849483 
141 -0.851174 -0.851226 -0.85128 -0.851336 -0.851393 -0.851452 -0.851513 -0.851576 -0.851641 -0.851707 
142 -0.849329 -0.849267 -0.849203 -0.849138 -0.849071 -0.849002 -0.848932 -0.848861 -0.848788 -0.848713 
143 -0.856008 -0.856 -0.855991 -0.855981 -0.855971 -0.85596 -0.855949 -0.855937 -0.855925 -0.855913 
144 -0.852581 -0.852597 -0.852611 -0.852625 -0.852638 -0.85265 -0.852662 -0.852672 -0.852682 -0.852692 
145 -0.847744 -0.847672 -0.8476 -0.847529 -0.847458 -0.847388 -0.847319 -0.84725 -0.847182 -0.847115 
146 -0.854298 -0.854334 -0.854369 -0.854403 -0.854436 -0.854467 -0.854497 -0.854525 -0.854552 -0.854577 
147 -0.855666 -0.855667 -0.855668 -0.855669 -0.85567 -0.855671 -0.855672 -0.855674 -0.855675 -0.855677 
148 -0.848621 -0.848563 -0.848504 -0.848445 -0.848385 -0.848325 -0.848265 -0.848204 -0.848143 -0.848081 
149 -0.854686 -0.854726 -0.854767 -0.854808 -0.854849 -0.85489 -0.854931 -0.854972 -0.855013 -0.855055 
150 -0.856074 -0.856011 -0.855947 -0.855882 -0.855815 -0.855747 -0.855678 -0.855608 -0.855537 -0.855465 
151 -0.850173 -0.850125 -0.850074 -0.850021 -0.849966 -0.849909 -0.849849 -0.849787 -0.849723 -0.849657 
152 -0.847825 -0.847788 -0.847751 -0.847713 -0.847675 -0.847637 -0.847599 -0.847561 -0.847522 -0.847483 
153 -0.85303 -0.85308 -0.853128 -0.853175 -0.85322 -0.853264 -0.853305 -0.853345 -0.853382 -0.853417 
154 -0.85108 -0.851089 -0.851096 -0.851099 -0.851098 -0.851094 -0.851087 -0.851075 -0.851061 -0.851043 
155 -0.847065 -0.847005 -0.846945 -0.846883 -0.84682 -0.846757 -0.846692 -0.846628 -0.846562 -0.846496 
156 -0.857058 -0.857099 -0.857141 -0.857182 -0.857224 -0.857266 -0.857309 -0.857352 -0.857396 -0.85744 
157 -0.858111 -0.858142 -0.858173 -0.858204 -0.858235 -0.858266 -0.858297 -0.858328 -0.858358 -0.858388 
158 -0.845993 -0.84593 -0.845867 -0.845804 -0.845742 -0.845681 -0.84562 -0.84556 -0.845502 -0.845444 
159 -0.849709 -0.849708 -0.849707 -0.849706 -0.849705 -0.849704 -0.849703 -0.849703 -0.849702 -0.849702 
160 -0.856962 -0.856866 -0.856768 -0.856669 -0.856568 -0.856466 -0.856362 -0.856256 -0.85615 -0.856042 
161 -0.838131 -0.838132 -0.838131 -0.838128 -0.838125 -0.838119 -0.838113 -0.838105 -0.838095 -0.838085 
162 -0.847383 -0.847439 -0.847495 -0.847551 -0.847606 -0.847661 -0.847714 -0.847767 -0.847818 -0.847867 
163 -0.841839 -0.841826 -0.841813 -0.841801 -0.841789 -0.841777 -0.841765 -0.841753 -0.84174 -0.841728 
164 -0.858812 -0.858857 -0.858901 -0.858943 -0.858985 -0.859025 -0.859064 -0.859103 -0.85914 -0.859178 
165 -0.860591 -0.86056 -0.860529 -0.860497 -0.860466 -0.860435 -0.860403 -0.860373 -0.860342 -0.860311 
166 -0.83598 -0.835981 -0.835981 -0.835981 -0.835981 -0.835979 -0.835978 -0.835976 -0.835973 -0.83597 
167 -0.853744 -0.853807 -0.853868 -0.853928 -0.853988 -0.854046 -0.854103 -0.854159 -0.854214 -0.854268 
168 -0.839298 -0.839335 -0.839372 -0.839408 -0.839444 -0.83948 -0.839515 -0.839549 -0.839583 -0.839616 
169 -0.8604 -0.860324 -0.860248 -0.860171 -0.860093 -0.860015 -0.859935 -0.859855 -0.859773 -0.859691 
170 -0.864334 -0.86436 -0.864384 -0.864406 -0.864424 -0.864441 -0.864456 -0.864468 -0.86448 -0.86449 
171 -0.864731 -0.864701 -0.864669 -0.864637 -0.864604 -0.864571 -0.864538 -0.864506 -0.864474 -0.864444 
172 -0.842369 -0.842375 -0.84238 -0.842385 -0.842391 -0.842396 -0.842401 -0.842407 -0.842413 -0.842419 
173 -0.851215 -0.851202 -0.851188 -0.851174 -0.851159 -0.851144 -0.851129 -0.851114 -0.851099 -0.851083 
174 -0.861195 -0.861277 -0.861361 -0.861445 -0.861531 -0.861617 -0.861703 -0.861789 -0.861875 -0.86196 
175 -0.871478 -0.871546 -0.871612 -0.871677 -0.871739 -0.871799 -0.871855 -0.871909 -0.871959 -0.872006 
176 -0.84285 -0.842894 -0.842938 -0.842984 -0.843031 -0.843079 -0.843128 -0.843177 -0.843227 -0.843278 
177 -0.833991 -0.834022 -0.834051 -0.83408 -0.834109 -0.834137 -0.834165 -0.834193 -0.834222 -0.83425 
178 -0.869403 -0.869501 -0.8696 -0.869697 -0.869793 -0.869887 -0.869979 -0.870067 -0.870152 -0.870233 
179 -0.851215 -0.851202 -0.851188 -0.851174 -0.851159 -0.851144 -0.851129 -0.851114 -0.851099 -0.851083 
180 -0.847923 -0.847995 -0.848069 -0.848146 -0.848225 -0.848305 -0.848386 -0.848469 -0.848551 -0.848633 
181 -0.872634 -0.872615 -0.872593 -0.872569 -0.872544 -0.872517 -0.872489 -0.872459 -0.872429 -0.872397 
182 -0.826606 -0.826645 -0.826685 -0.826725 -0.826765 -0.826805 -0.826846 -0.826887 -0.826929 -0.826971 
183 -0.834491 -0.834545 -0.8346 -0.834656 -0.834712 -0.834768 -0.834825 -0.834882 -0.834939 -0.834996 
184 -0.835314 -0.835346 -0.83538 -0.835416 -0.835454 -0.835494 -0.835537 -0.835583 -0.835631 -0.835681 
185 -0.87576 -0.875805 -0.875847 -0.875885 -0.875919 -0.875949 -0.875975 -0.875997 -0.876014 -0.876027 
186 -0.886627 -0.886706 -0.886787 -0.886869 -0.886951 -0.887035 -0.887118 -0.8872 -0.887281 -0.887361 
187 -0.83287 -0.832904 -0.832934 -0.832962 -0.832986 -0.833008 -0.833027 -0.833043 -0.833058 -0.83307 
188 -0.858807 -0.858829 -0.858856 -0.858887 -0.858923 -0.858962 -0.859006 -0.859053 -0.859103 -0.859157 
189 -0.882487 -0.882522 -0.882562 -0.882607 -0.882656 -0.882709 -0.882767 -0.882827 -0.882891 -0.882957 
190 -0.849485 -0.84948 -0.849475 -0.84947 -0.849465 -0.849461 -0.849457 -0.849453 -0.849449 -0.849446 
191 -0.851215 -0.851202 -0.851188 -0.851174 -0.851159 -0.851144 -0.851129 -0.851114 -0.851099 -0.851083 
192 -0.805368 -0.805399 -0.80543 -0.805462 -0.805495 -0.805528 -0.805563 -0.805599 -0.805637 -0.805677 
193 -0.851215 -0.851202 -0.851188 -0.851174 -0.851159 -0.851144 -0.851129 -0.851114 -0.851099 -0.851083 
194 -0.860396 -0.860323 -0.86025 -0.860176 -0.860102 -0.860028 -0.859954 -0.85988 -0.859805 -0.859731 
195 -0.848147 -0.848158 -0.848177 -0.848205 -0.848243 -0.84829 -0.848347 -0.848413 -0.84849 -0.848576 
196 -0.845842 -0.845789 -0.845737 -0.845685 -0.845632 -0.84558 -0.845529 -0.845478 -0.845427 -0.845377 
197 -0.85094 -0.850934 -0.850926 -0.850918 -0.850908 -0.850898 -0.850886 -0.850874 -0.85086 -0.850846 
198 -0.851215 -0.851202 -0.851188 -0.851174 -0.851159 -0.851144 -0.851129 -0.851114 -0.851099 -0.851083 
199 -0.792686 -0.792758 -0.792828 -0.792897 -0.792965 -0.793031 -0.793094 -0.793156 -0.793215 -0.793272 
200 -0.827275 -0.827281 -0.827293 -0.827312 -0.827339 -0.827373 -0.827415 -0.827465 -0.827523 -0.82759 
201 -0.900134 -0.900146 -0.900165 -0.900191 -0.900224 -0.900264 -0.900311 -0.900364 -0.900424 -0.900489 
202 -0.851215 -0.851202 -0.851188 -0.851174 -0.851159 -0.851144 -0.851129 -0.851114 -0.851099 -0.851083 
203 -0.869407 -0.869353 -0.869297 -0.869239 -0.869181 -0.869123 -0.869063 -0.869004 -0.868945 -0.868887 
204 -0.851226 -0.85118 -0.851133 -0.851086 -0.85104 -0.850994 -0.850948 -0.850902 -0.850857 -0.850812 
205 -0.894164 -0.894216 -0.89427 -0.894326 -0.894384 -0.894442 -0.8945 -0.894559 -0.894617 -0.894674 
206 -0.851215 -0.851202 -0.851188 -0.851174 -0.851159 -0.851144 -0.851129 -0.851114 -0.851099 -0.851083 
207 -0.770686 -0.770717 -0.770748 -0.770781 -0.770816 -0.770852 -0.77089 -0.77093 -0.770973 -0.771019 
208 -0.852733 -0.85277 -0.852819 -0.85288 -0.852954 -0.85304 -0.853139 -0.853251 -0.853375 -0.853512 
209 -0.889618 -0.889651 -0.889684 -0.889716 -0.889747 -0.889777 -0.889806 -0.889834 -0.889859 -0.889883 
210 -0.9103 -0.910332 -0.910375 -0.910429 -0.910494 -0.91057 -0.910658 -0.910756 -0.910865 -0.910984 
211 -0.851215 -0.851202 -0.851188 -0.851174 -0.851159 -0.851144 -0.851129 -0.851114 -0.851099 -0.851083 
212 -0.851215 -0.851202 -0.851188 -0.851174 -0.851159 -0.851144 -0.851129 -0.851114 -0.851099 -0.851083 
213 -0.843781 -0.843763 -0.843743 -0.843722 -0.8437 -0.843676 -0.843652 -0.843626 -0.843599 -0.84357 
214 -0.758073 -0.75813 -0.758188 -0.758245 -0.758303 -0.75836 -0.758417 -0.758474 -0.758531 -0.758588 
215 -0.787243 -0.787224 -0.787214 -0.787214 -0.787224 -0.787246 -0.787279 -0.787325 -0.787385 -0.787457 
216 -0.794982 -0.79495 -0.794926 -0.794912 -0.794908 -0.794914 -0.794933 -0.794963 -0.795007 -0.795063 
217 -0.853958 -0.853863 -0.853767 -0.85367 -0.853572 -0.853473 -0.853373 -0.853273 -0.853172 -0.85307 
218 -0.834543 -0.834559 -0.83459 -0.834636 -0.8347 -0.834781 -0.83488 -0.834999 -0.835138 -0.835296 
219 -0.851675 -0.851659 -0.851641 -0.851623 -0.851605 -0.851587 -0.851568 -0.851549 -0.85153 -0.851511 
220 -0.942443 -0.942402 -0.942367 -0.942339 -0.942318 -0.942304 -0.942298 -0.942301 -0.942312 -0.942332 
221 -0.782274 -0.782261 -0.782253 -0.782252 -0.782258 -0.782272 -0.782295 -0.782327 -0.782369 -0.78242 
222 -0.726334 -0.726375 -0.726431 -0.726503 -0.726593 -0.726701 -0.726827 -0.726973 -0.727138 -0.727323 
223 -0.895641 -0.895597 -0.89556 -0.895533 -0.895515 -0.895508 -0.895512 -0.895528 -0.895557 -0.895599 
224 -0.916721 -0.916703 -0.916691 -0.916683 -0.91668 -0.916681 -0.916688 -0.9167 -0.916716 -0.916737 
225 -0.832957 -0.833015 -0.833071 -0.833126 -0.833179 -0.83323 -0.83328 -0.833327 -0.833373 -0.833416 
226 -0.797883 -0.797979 -0.798079 -0.798182 -0.798288 -0.798394 -0.798502 -0.798609 -0.798715 -0.798819 
227 -0.880676 -0.880658 -0.88065 -0.880651 -0.880665 -0.880692 -0.880733 -0.880789 -0.880861 -0.88095 
228 -0.821107 -0.821182 -0.821257 -0.821332 -0.821407 -0.821481 -0.821554 -0.821624 -0.821692 -0.821757 
229 -0.851215 -0.851202 -0.851188 -0.851174 -0.851159 -0.851144 -0.851129 -0.851114 -0.851099 -0.851083 
230 -0.851215 -0.851202 -0.851188 -0.851174 -0.851159 -0.851144 -0.851129 -0.851114 -0.851099 -0.851083 
231 -0.851215 -0.851202 -0.851188 -0.851174 -0.851159 -0.851144 -0.851129 -0.851114 -0.851099 -0.851083 
232 -1.08226 -1.08229 -1.08233 -1.0824 -1.0825 -1.08262 -1.08276 -1.08293 -1.08313 -1.08336 
233 -0.851218 -0.851204 -0.85119 -0.851176 -0.851161 -0.851147 -0.851131 -0.851116 -0.8511 -0.851084 
234 -0.976445 -0.976407 -0.976377 -0.976356 -0.976343 -0.97634 -0.976347 -0.976364 -0.976391 -0.976429 
235 -0.635954 -0.63595 -0.635952 -0.635961 -0.635979 -0.636008 -0.636049 -0.636103 -0.636172 -0.636255 
236 -0.908093 -0.908074 -0.908059 -0.908046 -0.908037 -0.908031 -0.908028 -0.908028 -0.90803 -0.908036 
237 -1.09782 -1.09783 -1.09785 -1.0979 -1.09798 -1.09807 -1.09819 -1.09833 -1.0985 -1.0987 
238 -0.852625 -0.852608 -0.852591 -0.852572 -0.852554 -0.852534 -0.852515 -0.852494 -0.852473 -0.852452 
239 -0.696313 -0.696271 -0.696234 -0.696201 -0.696175 -0.696158 -0.696152 -0.696157 -0.696175 -0.696206 
240 -0.758651 -0.758692 -0.758737 -0.758786 -0.758837 -0.758892 -0.758949 -0.759008 -0.75907 -0.759133 
241 -0.721789 -0.721797 -0.721809 -0.721824 -0.721844 -0.721869 -0.7219 -0.721936 -0.721978 -0.722027 
242 -0.851214 -0.851201 -0.851187 -0.851173 -0.851158 -0.851144 -0.851129 -0.851113 -0.851098 -0.851082 
243 -0.983603 -0.983568 -0.983538 -0.983514 -0.983496 -0.983485 -0.98348 -0.983482 -0.983491 -0.983508 
244 -1.11005 -1.11005 -1.11007 -1.11011 -1.11016 -1.11023 -1.11032 -1.11043 -1.11055 -1.1107 
245 -0.511029 -0.511091 -0.511153 -0.511217 -0.511282 -0.511349 -0.51142 -0.511496 -0.511575 -0.511661 
246 -1.04297 -1.04293 -1.04291 -1.04289 -1.04289 -1.0429 -1.04292 -1.04295 -1.043 -1.04306 
247 -0.847531 -0.847536 -0.847543 -0.847551 -0.847561 -0.847572 -0.847586 -0.847601 -0.847618 -0.847636 
248 -0.851215 -0.851202 -0.851188 -0.851174 -0.851159 -0.851144 -0.851129 -0.851114 -0.851099 -0.851083 
249 -0.598663 -0.598703 -0.598748 -0.598797 -0.598851 -0.598912 -0.598979 -0.599054 -0.599137 -0.599229 
250 -0.811549 -0.811655 -0.811765 -0.811878 -0.811993 -0.812109 -0.812225 -0.81234 -0.812452 -0.812562 
251 -0.76502 -0.765124 -0.765232 -0.765343 -0.765456 -0.765571 -0.765685 -0.765799 -0.76591 -0.766019 
252 -0.733407 -0.733399 -0.733394 -0.733393 -0.733395 -0.733401 -0.733412 -0.733428 -0.733449 -0.733476 
253 -0.851215 -0.851202 -0.851188 -0.851174 -0.851159 -0.851144 -0.851129 -0.851114 -0.851099 -0.851083 
254 -0.881915 -0.881939 -0.881962 -0.881985 -0.882006 -0.882026 -0.882044 -0.882059 -0.882073 -0.882084 
255 -0.851227 -0.851218 -0.851207 -0.851197 -0.851186 -0.851174 -0.851163 -0.851151 -0.851138 -0.851125 
256 -0.858738 -0.858665 -0.858592 -0.858517 -0.858442 -0.858366 -0.85829 -0.858213 -0.858136 -0.858058 
257 -1.0432 -1.04315 -1.04311 -1.04307 -1.04304 -1.04301 -1.04299 -1.04298 -1.04297 -1.04297 
258 -0.824973 -0.82505 -0.825127 -0.825201 -0.825274 -0.825344 -0.82541 -0.825473 -0.825533 -0.825588 
259 -0.871245 -0.871246 -0.871245 -0.871242 -0.871236 -0.871228 -0.871218 -0.871205 -0.87119 -0.871173 
260 -0.621453 -0.621521 -0.621593 -0.621666 -0.621741 -0.621818 -0.621897 -0.621978 -0.62206 -0.622144 
261 -0.990908 -0.990862 -0.99082 -0.990783 -0.990751 -0.990724 -0.990703 -0.990688 -0.990679 -0.990677 
262 -1.02331 -1.02328 -1.02324 -1.02321 -1.02319 -1.02317 -1.02315 -1.02315 -1.02314 -1.02315 
263 -0.851269 -0.851256 -0.851241 -0.851227 -0.851212 -0.851197 -0.851181 -0.851165 -0.851149 -0.851133 
264 -0.838298 -0.838333 -0.838365 -0.838395 -0.838422 -0.838447 -0.83847 -0.838491 -0.838509 -0.838525 
265 -0.706059 -0.70607 -0.706085 -0.706103 -0.706124 -0.706149 -0.706178 -0.70621 -0.706247 -0.706287 
266 -0.665785 -0.665811 -0.665837 -0.665863 -0.66589 -0.665918 -0.665947 -0.665978 -0.66601 -0.666044 
267 -0.908622 -0.908598 -0.908575 -0.908555 -0.908536 -0.908519 -0.908504 -0.90849 -0.908478 -0.908467 
268 -0.845736 -0.845763 -0.845786 -0.845805 -0.845818 -0.845827 -0.84583 -0.845828 -0.845821 -0.845807 
269 -0.851215 -0.851202 -0.851188 -0.851174 -0.851159 -0.851144 -0.851129 -0.851114 -0.851099 -0.851083 
270 -1.00454 -1.00454 -1.00453 -1.00453 -1.00453 -1.00453 -1.00454 -1.00455 -1.00456 -1.00458 
271 -0.964185 -0.964143 -0.964106 -0.964072 -0.964043 -0.964018 -0.963998 -0.963983 -0.963973 -0.963968 
272 -0.687587 -0.687628 -0.687677 -0.687732 -0.687793 -0.68786 -0.687933 -0.688011 -0.688093 -0.688177 
273 -0.77082 -0.770882 -0.770953 -0.771033 -0.771122 -0.771217 -0.771319 -0.771426 -0.771537 -0.771651 
274 -0.730172 -0.730186 -0.730204 -0.730224 -0.730248 -0.730274 -0.730304 -0.730336 -0.730371 -0.730409 
275 -0.850871 -0.850846 -0.850821 -0.850796 -0.850771 -0.850744 -0.850718 -0.850691 -0.850664 -0.850637 
276 -0.976285 -0.976262 -0.976243 -0.976227 -0.976214 -0.976205 -0.9762 -0.976198 -0.9762 -0.976206 
277 -0.851215 -0.851202 -0.851188 -0.851174 -0.851159 -0.851144 -0.851129 -0.851114 -0.851099 -0.851083 
278 -0.711819 -0.711864 -0.71191 -0.711957 -0.712004 -0.712052 -0.712099 -0.712145 -0.712191 -0.712236 
279 -0.761558 -0.761589 -0.761626 -0.761668 -0.761714 -0.761765 -0.761819 -0.761875 -0.761934 -0.761993 
280 -0.935148 -0.935106 -0.935067 -0.93503 -0.934996 -0.934965 -0.934936 -0.934911 -0.934889 -0.93487 
281 -0.823867 -0.823822 -0.823786 -0.823759 -0.823741 -0.823734 -0.823736 -0.823748 -0.823768 -0.823798 
282 -0.938948 -0.93895 -0.938953 -0.938956 -0.938961 -0.938967 -0.938974 -0.938981 -0.938989 -0.938998 
283 -0.894674 -0.894668 -0.894663 -0.894659 -0.894654 -0.89465 -0.894647 -0.894643 -0.894638 -0.894634 
284 -0.799433 -0.79942 -0.799418 -0.799426 -0.799445 -0.799475 -0.799514 -0.799563 -0.799619 -0.799684 
285 -0.743176 -0.743104 -0.743042 -0.742993 -0.742957 -0.742934 -0.742927 -0.742935 -0.742959 -0.742999 
286 -0.851215 -0.851202 -0.851188 -0.851174 -0.851159 -0.851144 -0.851129 -0.851114 -0.851099 -0.851083 
287 -0.775143 -0.775121 -0.7751 -0.775082 -0.775067 -0.775055 -0.775049 -0.775048 -0.775052 -0.775063 