VARIABLES = "Cell" "Mode 0" "Mode 1" "Mode 2" "Mode 3" "Mode 4" "Mode 5" "Mode 6" "Mode 7" "Mode 8" "Mode 9" 
ZONE T = Iteration343
0 -0.851364 -0.851356 -0.851347 -0.851338 -0.851329 -0.851319 -0.851309 -0.851299 -0.851288 -0.851277 
1 -0.851364 -0.851356 -0.851347 -0.851338 -0.851329 -0.851319 -0.851309 -0.851299 -0.851288 -0.851277 
2 -0.851364 -0.851356 -0.851347 -0.851338 -0.851329 -0.851319 -0.851309 -0.851299 -0.851288 -0.851277 
3 -0.851364 -0.851356 -0.851347 -0.851338 -0.851329 -0.851319 -0.851309 -0.851299 -0.851288 -0.851277 
4 -0.851364 -0.851356 -0.851347 -0.851338 -0.851329 -0.851319 -0.851309 -0.851299 -0.851288 -0.851277 
5 -0.851364 -0.851356 -0.851347 -0.851338 -0.851329 -0.851319 -0.851309 -0.851299 -0.851288 -0.851277 
6 -0.851364 -0.851356 -0.851347 -0.851338 -0.851329 -0.851319 -0.851309 -0.851299 -0.851288 -0.851277 
7 -0.851364 -0.851356 -0.851347 -0.851338 -0.851329 -0.851319 -0.851309 -0.851299 -0.851288 -0.851277 
8 -0.851364 -0.851356 -0.851347 -0.851338 -0.851329 -0.851319 -0.851309 -0.851299 -0.851288 -0.851277 
9 -0.851364 -0.851356 -0.851347 -0.851338 -0.851329 -0.851319 -0.851309 -0.851299 -0.851288 -0.851277 
10 -0.851364 -0.851356 -0.851347 -0.851338 -0.851329 -0.851319 -0.851309 -0.851299 -0.851288 -0.851277 
11 -0.851364 -0.851356 -0.851347 -0.851338 -0.851329 -0.851319 -0.851309 -0.851299 -0.851288 -0.851277 
12 -0.851364 -0.851356 -0.851347 -0.851338 -0.851329 -0.851319 -0.851309 -0.851299 -0.851288 -0.851277 
13 -0.851364 -0.851356 -0.851347 -0.851338 -0.851329 -0.851319 -0.851309 -0.851299 -0.851288 -0.851277 
14 -0.851364 -0.851356 -0.851347 -0.851338 -0.851329 -0.851319 -0.851309 -0.851299 -0.851288 -0.851277 
15 -0.851364 -0.851356 -0.851347 -0.851338 -0.851329 -0.851319 -0.851309 -0.851299 -0.851288 -0.851277 
16 -0.851364 -0.851356 -0.851347 -0.851338 -0.851329 -0.851319 -0.851309 -0.851299 -0.851288 -0.851277 
17 -0.851364 -0.851356 -0.851347 -0.851338 -0.851329 -0.851319 -0.851309 -0.851299 -0.851288 -0.851277 
18 -0.851364 -0.851356 -0.851347 -0.851338 -0.851329 -0.851319 -0.851309 -0.851299 -0.851288 -0.851277 
19 -0.851364 -0.851356 -0.851347 -0.851338 -0.851329 -0.851319 -0.851309 -0.851299 -0.851288 -0.851277 
20 -0.851364 -0.851356 -0.851347 -0.851338 -0.851329 -0.851319 -0.851309 -0.851299 -0.851288 -0.851277 
21 -0.851364 -0.851356 -0.851347 -0.851338 -0.851329 -0.851319 -0.851309 -0.851299 -0.851288 -0.851277 
22 -0.851364 -0.851356 -0.851347 -0.851338 -0.851329 -0.851319 -0.851309 -0.851299 -0.851288 -0.851277 
23 -0.851364 -0.851356 -0.851347 -0.851338 -0.851329 -0.851319 -0.851309 -0.851299 -0.851288 -0.851277 
24 -0.851364 -0.851356 -0.851347 -0.851338 -0.851329 -0.851319 -0.851309 -0.851299 -0.851288 -0.851277 
25 -0.851364 -0.851356 -0.851347 -0.851338 -0.851329 -0.851319 -0.851309 -0.851299 -0.851288 -0.851277 
26 -0.851364 -0.851356 -0.851347 -0.851338 -0.851329 -0.851319 -0.851309 -0.851299 -0.851288 -0.851277 
27 -0.851364 -0.851356 -0.851347 -0.851338 -0.851329 -0.851319 -0.851309 -0.851299 -0.851288 -0.851277 
28 -0.851364 -0.851356 -0.851347 -0.851338 -0.851329 -0.851319 -0.851309 -0.851299 -0.851288 -0.851277 
29 -0.851364 -0.851356 -0.851347 -0.851338 -0.851329 -0.851319 -0.851309 -0.851299 -0.851288 -0.851277 
30 -0.851364 -0.851356 -0.851347 -0.851338 -0.851329 -0.851319 -0.851309 -0.851299 -0.851288 -0.851277 
31 -0.851364 -0.851356 -0.851347 -0.851338 -0.851329 -0.851319 -0.851309 -0.851299 -0.851288 -0.851277 
32 -0.851364 -0.851356 -0.851347 -0.851338 -0.851329 -0.851319 -0.851309 -0.851299 -0.851288 -0.851277 
33 -0.851364 -0.851356 -0.851347 -0.851338 -0.851329 -0.851319 -0.851309 -0.851299 -0.851288 -0.851277 
34 -0.851364 -0.851356 -0.851347 -0.851338 -0.851329 -0.851319 -0.851309 -0.851299 -0.851288 -0.851277 
35 -0.851364 -0.851356 -0.851347 -0.851338 -0.851329 -0.851319 -0.851309 -0.851299 -0.851288 -0.851277 
36 -0.851364 -0.851356 -0.851347 -0.851338 -0.851329 -0.851319 -0.851309 -0.851299 -0.851288 -0.851277 
37 -0.851364 -0.851356 -0.851347 -0.851338 -0.851329 -0.851319 -0.851309 -0.851299 -0.851288 -0.851277 
38 -0.851364 -0.851356 -0.851347 -0.851338 -0.851329 -0.851319 -0.851309 -0.851299 -0.851288 -0.851277 
39 -0.851364 -0.851356 -0.851347 -0.851338 -0.851329 -0.851319 -0.851309 -0.851299 -0.851288 -0.851277 
40 -0.851364 -0.851356 -0.851347 -0.851338 -0.851329 -0.851319 -0.851309 -0.851299 -0.851288 -0.851277 
41 -0.851364 -0.851356 -0.851347 -0.851338 -0.851329 -0.851319 -0.851309 -0.851299 -0.851288 -0.851277 
42 -0.851364 -0.851356 -0.851347 -0.851338 -0.851329 -0.851319 -0.851309 -0.851299 -0.851288 -0.851277 
43 -0.851364 -0.851356 -0.851347 -0.851338 -0.851329 -0.851319 -0.851309 -0.851299 -0.851288 -0.851277 
44 -0.851364 -0.851356 -0.851347 -0.851338 -0.851329 -0.851319 -0.851309 -0.851299 -0.851288 -0.851277 
45 -0.851364 -0.851356 -0.851347 -0.851338 -0.851329 -0.851319 -0.851309 -0.851299 -0.851288 -0.851277 
46 -0.851364 -0.851356 -0.851347 -0.851338 -0.851329 -0.851319 -0.851309 -0.851299 -0.851288 -0.851277 
47 -0.851364 -0.851356 -0.851347 -0.851338 -0.851329 -0.851319 -0.851309 -0.851299 -0.851288 -0.851277 
48 -0.851364 -0.851356 -0.851347 -0.851338 -0.851329 -0.851319 -0.851309 -0.851299 -0.851288 -0.851277 
49 -0.851364 -0.851356 -0.851347 -0.851338 -0.851329 -0.851319 -0.851309 -0.851299 -0.851288 -0.851277 
50 -0.851364 -0.851356 -0.851347 -0.851338 -0.851329 -0.851319 -0.851309 -0.851299 -0.851288 -0.851277 
51 -0.851364 -0.851356 -0.851347 -0.851338 -0.851329 -0.851319 -0.851309 -0.851299 -0.851288 -0.851277 
52 -0.851364 -0.851356 -0.851347 -0.851338 -0.851329 -0.851319 -0.851309 -0.851299 -0.851288 -0.851277 
53 -0.851364 -0.851356 -0.851347 -0.851338 -0.851329 -0.851319 -0.851309 -0.851299 -0.851288 -0.851277 
54 -0.851364 -0.851356 -0.851347 -0.851338 -0.851329 -0.851319 -0.851309 -0.851299 -0.851288 -0.851277 
55 -0.851364 -0.851356 -0.851347 -0.851338 -0.851329 -0.851319 -0.851309 -0.851299 -0.851288 -0.851277 
56 -0.851364 -0.851356 -0.851347 -0.851338 -0.851329 -0.851319 -0.851309 -0.851299 -0.851288 -0.851277 
57 -0.851364 -0.851356 -0.851347 -0.851338 -0.851329 -0.851319 -0.851309 -0.851299 -0.851288 -0.851277 
58 -0.851364 -0.851356 -0.851347 -0.851338 -0.851329 -0.851319 -0.851309 -0.851299 -0.851288 -0.851277 
59 -0.851364 -0.851356 -0.851347 -0.851338 -0.851329 -0.851319 -0.851309 -0.851299 -0.851288 -0.851277 
60 -0.851364 -0.851356 -0.851347 -0.851338 -0.851329 -0.851319 -0.851309 -0.851299 -0.851288 -0.851277 
61 -0.851364 -0.851356 -0.851347 -0.851338 -0.851329 -0.851319 -0.851309 -0.851299 -0.851288 -0.851277 
62 -0.851364 -0.851356 -0.851347 -0.851338 -0.851329 -0.851319 -0.851309 -0.851299 -0.851288 -0.851277 
63 -0.851364 -0.851356 -0.851347 -0.851338 -0.851329 -0.851319 -0.851309 -0.851299 -0.851288 -0.851277 
64 -0.851364 -0.851356 -0.851347 -0.851338 -0.851329 -0.851319 -0.851309 -0.851299 -0.851288 -0.851277 
65 -0.851364 -0.851356 -0.851347 -0.851338 -0.851329 -0.851319 -0.851309 -0.851299 -0.851288 -0.851277 
66 -0.851364 -0.851356 -0.851347 -0.851338 -0.851329 -0.851319 -0.851309 -0.851299 -0.851288 -0.851277 
67 -0.851364 -0.851356 -0.851347 -0.851338 -0.851329 -0.851319 -0.851309 -0.851299 -0.851288 -0.851277 
68 -0.851364 -0.851356 -0.851347 -0.851338 -0.851329 -0.851319 -0.851309 -0.851299 -0.851288 -0.851277 
69 -0.851364 -0.851356 -0.851347 -0.851338 -0.851329 -0.851319 -0.851309 -0.851299 -0.851288 -0.851277 
70 -0.851364 -0.851356 -0.851347 -0.851338 -0.851329 -0.851319 -0.851309 -0.851299 -0.851288 -0.851277 
71 -0.851364 -0.851356 -0.851347 -0.851338 -0.851329 -0.851319 -0.851309 -0.851299 -0.851288 -0.851277 
72 -0.851364 -0.851356 -0.851347 -0.851338 -0.851329 -0.851319 -0.851309 -0.851299 -0.851288 -0.851277 
73 -0.851364 -0.851356 -0.851347 -0.851338 -0.851329 -0.851319 -0.851309 -0.851299 -0.851288 -0.851277 
74 -0.851364 -0.851356 -0.851347 -0.851338 -0.851329 -0.851319 -0.851309 -0.851299 -0.851288 -0.851277 
75 -0.851365 -0.851356 -0.851347 -0.851338 -0.851329 -0.851319 -0.851309 -0.851299 -0.851288 -0.851277 
76 -0.851364 -0.851356 -0.851347 -0.851338 -0.851329 -0.851319 -0.851309 -0.851299 -0.851288 -0.851277 
77 -0.851364 -0.851356 -0.851347 -0.851338 -0.851329 -0.851319 -0.851309 -0.851299 -0.851288 -0.851277 
78 -0.851364 -0.851356 -0.851347 -0.851338 -0.851329 -0.851319 -0.851309 -0.851299 -0.851288 -0.851277 
79 -0.851359 -0.851351 -0.851342 -0.851333 -0.851324 -0.851314 -0.851304 -0.851294 -0.851283 -0.851272 
80 -0.851366 -0.851358 -0.851349 -0.85134 -0.851331 -0.851321 -0.851311 -0.851301 -0.85129 -0.851279 
81 -0.851366 -0.851358 -0.851349 -0.85134 -0.85133 -0.851321 -0.851311 -0.8513 -0.851289 -0.851278 
82 -0.851359 -0.85135 -0.851342 -0.851333 -0.851324 -0.851314 -0.851304 -0.851294 -0.851283 -0.851272 
83 -0.851363 -0.851354 -0.851346 -0.851337 -0.851327 -0.851318 -0.851308 -0.851297 -0.851287 -0.851276 
84 -0.851362 -0.851354 -0.851345 -0.851336 -0.851327 -0.851317 -0.851307 -0.851297 -0.851286 -0.851275 
85 -0.851358 -0.85135 -0.851341 -0.851332 -0.851323 -0.851313 -0.851304 -0.851293 -0.851283 -0.851272 
86 -0.851365 -0.851356 -0.851347 -0.851338 -0.851329 -0.851319 -0.85131 -0.851299 -0.851288 -0.851277 
87 -0.851364 -0.851356 -0.851347 -0.851338 -0.851329 -0.851319 -0.851309 -0.851299 -0.851288 -0.851277 
88 -0.851367 -0.851358 -0.851349 -0.85134 -0.851331 -0.851321 -0.851311 -0.851301 -0.85129 -0.851279 
89 -0.851419 -0.851409 -0.8514 -0.85139 -0.85138 -0.851369 -0.851358 -0.851347 -0.851335 -0.851323 
90 -0.851364 -0.851356 -0.851347 -0.851338 -0.851329 -0.851319 -0.851309 -0.851299 -0.851288 -0.851277 
91 -0.851299 -0.851292 -0.851284 -0.851276 -0.851268 -0.851259 -0.85125 -0.851241 -0.851231 -0.851221 
92 -0.851407 -0.851398 -0.851388 -0.851378 -0.851368 -0.851357 -0.851346 -0.851335 -0.851323 -0.851311 
93 -0.85144 -0.851429 -0.851418 -0.851407 -0.851395 -0.851383 -0.851371 -0.851358 -0.851345 -0.851331 
94 -0.851364 -0.851356 -0.851347 -0.851338 -0.851329 -0.851319 -0.851309 -0.851299 -0.851288 -0.851277 
95 -0.851272 -0.851262 -0.851253 -0.851243 -0.851233 -0.851223 -0.851212 -0.851201 -0.85119 -0.851179 
96 -0.851277 -0.851269 -0.85126 -0.851252 -0.851243 -0.851234 -0.851224 -0.851214 -0.851204 -0.851194 
97 -0.851476 -0.851465 -0.851453 -0.851441 -0.851429 -0.851416 -0.851403 -0.851389 -0.851376 -0.851362 
98 -0.851365 -0.851356 -0.851348 -0.851339 -0.851329 -0.85132 -0.85131 -0.851299 -0.851289 -0.851278 
99 -0.85125 -0.851252 -0.851254 -0.851255 -0.851256 -0.851257 -0.851257 -0.851257 -0.851257 -0.851256 
100 -0.85204 -0.85202 -0.851999 -0.851978 -0.851956 -0.851934 -0.851912 -0.851889 -0.851865 -0.851841 
101 -0.851389 -0.851381 -0.851372 -0.851362 -0.851353 -0.851343 -0.851333 -0.851322 -0.851311 -0.8513 
102 -0.851584 -0.851584 -0.851583 -0.851582 -0.851581 -0.851578 -0.851575 -0.851572 -0.851568 -0.851563 
103 -0.851387 -0.851377 -0.851368 -0.851358 -0.851347 -0.851337 -0.851326 -0.851314 -0.851303 -0.851291 
104 -0.85201 -0.851999 -0.851988 -0.851977 -0.851965 -0.851952 -0.851939 -0.851925 -0.851911 -0.851896 
105 -0.851188 -0.851173 -0.851158 -0.851143 -0.851128 -0.851113 -0.851098 -0.851083 -0.851068 -0.851052 
106 -0.851339 -0.85133 -0.851322 -0.851313 -0.851304 -0.851295 -0.851285 -0.851275 -0.851264 -0.851253 
107 -0.851364 -0.851356 -0.851347 -0.851338 -0.851329 -0.851319 -0.851309 -0.851299 -0.851288 -0.851277 
108 -0.851506 -0.8515 -0.851494 -0.851488 -0.851481 -0.851474 -0.851466 -0.851458 -0.851449 -0.85144 
109 -0.85055 -0.850559 -0.850567 -0.850576 -0.850584 -0.850592 -0.850599 -0.850607 -0.850613 -0.85062 
110 -0.849427 -0.849426 -0.849425 -0.849425 -0.849425 -0.849426 -0.849428 -0.84943 -0.849433 -0.849436 
111 -0.851147 -0.851187 -0.851226 -0.851264 -0.851302 -0.851338 -0.851374 -0.851408 -0.851442 -0.851475 
112 -0.851482 -0.851472 -0.85146 -0.851449 -0.851437 -0.851425 -0.851413 -0.8514 -0.851387 -0.851373 
113 -0.851364 -0.851356 -0.851347 -0.851338 -0.851329 -0.851319 -0.851309 -0.851299 -0.851288 -0.851277 
114 -0.850828 -0.850834 -0.850839 -0.850844 -0.850848 -0.850852 -0.850855 -0.850858 -0.85086 -0.850862 
115 -0.852211 -0.852159 -0.852105 -0.852052 -0.851998 -0.851943 -0.851888 -0.851832 -0.851776 -0.851719 
116 -0.851428 -0.851434 -0.851439 -0.851443 -0.851447 -0.85145 -0.851453 -0.851455 -0.851457 -0.851457 
117 -0.849575 -0.849593 -0.849613 -0.849633 -0.849654 -0.849675 -0.849697 -0.84972 -0.849744 -0.849768 
118 -0.849598 -0.849577 -0.849555 -0.849533 -0.849511 -0.849488 -0.849466 -0.849443 -0.849421 -0.849398 
119 -0.848294 -0.848299 -0.848304 -0.84831 -0.848316 -0.848323 -0.84833 -0.848337 -0.848344 -0.848351 
120 -0.850978 -0.850962 -0.850946 -0.85093 -0.850915 -0.8509 -0.850886 -0.850872 -0.850859 -0.850845 
121 -0.852991 -0.853016 -0.853039 -0.853061 -0.853082 -0.853102 -0.85312 -0.853136 -0.853152 -0.853165 
122 -0.849222 -0.84917 -0.849118 -0.849066 -0.849014 -0.848963 -0.848912 -0.848861 -0.848811 -0.848761 
123 -0.84798 -0.84798 -0.84798 -0.847982 -0.847984 -0.847988 -0.847991 -0.847996 -0.848001 -0.848007 
124 -0.853352 -0.85337 -0.853388 -0.853405 -0.853422 -0.853438 -0.853453 -0.853468 -0.853481 -0.853494 
125 -0.853146 -0.853151 -0.853156 -0.853159 -0.853162 -0.853164 -0.853165 -0.853165 -0.853164 -0.853162 
126 -0.851362 -0.851354 -0.851345 -0.851336 -0.851327 -0.851317 -0.851307 -0.851297 -0.851286 -0.851275 
127 -0.850972 -0.850923 -0.850874 -0.850824 -0.850773 -0.850721 -0.850668 -0.850613 -0.850558 -0.850502 
128 -0.855208 -0.855223 -0.855236 -0.855249 -0.855261 -0.855272 -0.855283 -0.855292 -0.8553 -0.855308 
129 -0.852152 -0.852185 -0.852219 -0.852255 -0.852292 -0.852329 -0.852368 -0.852408 -0.852449 -0.852491 
130 -0.85226 -0.852286 -0.852313 -0.85234 -0.852368 -0.852397 -0.852427 -0.852457 -0.852487 -0.852518 
131 -0.848929 -0.848918 -0.848907 -0.848896 -0.848885 -0.848874 -0.848862 -0.848851 -0.848839 -0.848826 
132 -0.84974 -0.849679 -0.849617 -0.849554 -0.84949 -0.849425 -0.849358 -0.849291 -0.849223 -0.849154 
133 -0.851271 -0.851266 -0.851261 -0.851256 -0.851251 -0.851246 -0.851241 -0.851236 -0.851231 -0.851226 
134 -0.852519 -0.852499 -0.852477 -0.852453 -0.852428 -0.852401 -0.852373 -0.852342 -0.85231 -0.852277 
135 -0.850328 -0.85024 -0.85015 -0.850059 -0.849967 -0.849874 -0.849779 -0.849683 -0.849586 -0.849488 
136 -0.851364 -0.851355 -0.851346 -0.851337 -0.851328 -0.851318 -0.851308 -0.851297 -0.851286 -0.851275 
137 -0.850853 -0.850853 -0.850853 -0.850853 -0.850853 -0.850853 -0.850852 -0.850851 -0.85085 -0.850849 
138 -0.852378 -0.85241 -0.852443 -0.852477 -0.852512 -0.852548 -0.852585 -0.852623 -0.852661 -0.8527 
139 -0.849336 -0.849315 -0.849292 -0.849266 -0.849239 -0.84921 -0.849178 -0.849144 -0.849108 -0.84907 
140 -0.850047 -0.850026 -0.850005 -0.849983 -0.849961 -0.849939 -0.849916 -0.849893 -0.849869 -0.849846 
141 -0.850656 -0.850679 -0.850704 -0.850732 -0.850762 -0.850794 -0.850828 -0.850865 -0.850903 -0.850943 
142 -0.850005 -0.849969 -0.849931 -0.849891 -0.849849 -0.849805 -0.84976 -0.849712 -0.849663 -0.849612 
143 -0.856051 -0.856053 -0.856053 -0.856053 -0.856053 -0.856052 -0.85605 -0.856047 -0.856044 -0.85604 
144 -0.852262 -0.852291 -0.852319 -0.852347 -0.852373 -0.852398 -0.852423 -0.852446 -0.852468 -0.85249 
145 -0.84877 -0.848697 -0.848624 -0.848551 -0.848477 -0.848404 -0.84833 -0.848257 -0.848183 -0.848109 
146 -0.853726 -0.853767 -0.853809 -0.853851 -0.853893 -0.853936 -0.853978 -0.85402 -0.854061 -0.854102 
147 -0.855633 -0.855637 -0.85564 -0.855644 -0.855647 -0.85565 -0.855653 -0.855655 -0.855657 -0.855659 
148 -0.849397 -0.849343 -0.84929 -0.849236 -0.849182 -0.849127 -0.849073 -0.849017 -0.848962 -0.848906 
149 -0.854172 -0.854204 -0.854236 -0.85427 -0.854304 -0.85434 -0.854376 -0.854413 -0.85445 -0.854488 
150 -0.856784 -0.856743 -0.856701 -0.856657 -0.856612 -0.856566 -0.856517 -0.856468 -0.856416 -0.856363 
151 -0.8506 -0.850584 -0.850566 -0.850546 -0.850524 -0.8505 -0.850473 -0.850444 -0.850412 -0.850379 
152 -0.848299 -0.848267 -0.848236 -0.848204 -0.848171 -0.848139 -0.848105 -0.848072 -0.848038 -0.848003 
153 -0.85225 -0.852309 -0.852368 -0.852426 -0.852484 -0.852542 -0.852599 -0.852655 -0.852711 -0.852767 
154 -0.850648 -0.850692 -0.850735 -0.850777 -0.850816 -0.850854 -0.85089 -0.850923 -0.850954 -0.850982 
155 -0.847743 -0.847705 -0.847666 -0.847625 -0.847582 -0.847538 -0.847492 -0.847444 -0.847394 -0.847343 
156 -0.856429 -0.856478 -0.856526 -0.856574 -0.856621 -0.856667 -0.856713 -0.856758 -0.856802 -0.856846 
157 -0.857683 -0.857713 -0.857743 -0.857773 -0.857803 -0.857833 -0.857864 -0.857894 -0.857925 -0.857956 
158 -0.846846 -0.846789 -0.846731 -0.846672 -0.846613 -0.846553 -0.846492 -0.846431 -0.84637 -0.846307 
159 -0.849718 -0.849717 -0.849717 -0.849716 -0.849716 -0.849715 -0.849715 -0.849714 -0.849714 -0.849713 
160 -0.858123 -0.858051 -0.857977 -0.857902 -0.857825 -0.857747 -0.857666 -0.857584 -0.857501 -0.857415 
161 -0.837954 -0.837975 -0.837996 -0.838015 -0.838033 -0.83805 -0.838065 -0.838079 -0.838091 -0.838102 
162 -0.846665 -0.846709 -0.846754 -0.8468 -0.846848 -0.846897 -0.846947 -0.846999 -0.847052 -0.847105 
163 -0.8421 -0.842077 -0.842054 -0.842032 -0.842011 -0.84199 -0.84197 -0.841951 -0.841933 -0.841915 
164 -0.858057 -0.858115 -0.858174 -0.858232 -0.85829 -0.858347 -0.858403 -0.858459 -0.858513 -0.858566 
165 -0.860912 -0.8609 -0.860886 -0.86087 -0.860852 -0.860832 -0.86081 -0.860787 -0.860762 -0.860736 
166 -0.835923 -0.835929 -0.835934 -0.83594 -0.835945 -0.83595 -0.835955 -0.83596 -0.835964 -0.835968 
167 -0.85287 -0.852927 -0.852985 -0.853046 -0.853107 -0.853169 -0.853233 -0.853296 -0.853361 -0.853425 
168 -0.838806 -0.838837 -0.838869 -0.838902 -0.838936 -0.83897 -0.839005 -0.839041 -0.839077 -0.839113 
169 -0.861394 -0.861329 -0.861262 -0.861194 -0.861126 -0.861056 -0.860986 -0.860914 -0.860843 -0.86077 
170 -0.86372 -0.863773 -0.863826 -0.863878 -0.863929 -0.863979 -0.864028 -0.864074 -0.864119 -0.864161 
171 -0.864863 -0.864875 -0.864884 -0.86489 -0.864892 -0.86489 -0.864885 -0.864876 -0.864864 -0.864849 
172 -0.842218 -0.842235 -0.842251 -0.842266 -0.84228 -0.842293 -0.842305 -0.842315 -0.842325 -0.842334 
173 -0.851364 -0.851356 -0.851347 -0.851338 -0.851329 -0.851319 -0.851309 -0.851299 -0.851288 -0.851277 
174 -0.860374 -0.860408 -0.860445 -0.860487 -0.860533 -0.860583 -0.860637 -0.860695 -0.860757 -0.860822 
175 -0.870618 -0.870662 -0.87071 -0.870762 -0.870817 -0.870875 -0.870936 -0.871 -0.871066 -0.871133 
176 -0.842358 -0.842384 -0.842412 -0.842442 -0.842472 -0.842504 -0.842538 -0.842573 -0.842609 -0.842646 
177 -0.833473 -0.833514 -0.833555 -0.833595 -0.833636 -0.833675 -0.833714 -0.833752 -0.833789 -0.833825 
178 -0.868335 -0.868378 -0.868428 -0.868484 -0.868546 -0.868614 -0.868687 -0.868764 -0.868846 -0.868932 
179 -0.851364 -0.851356 -0.851347 -0.851338 -0.851329 -0.851319 -0.851309 -0.851299 -0.851288 -0.851277 
180 -0.847367 -0.847376 -0.847389 -0.847408 -0.84743 -0.847458 -0.847491 -0.847529 -0.847572 -0.84762 
181 -0.872684 -0.872692 -0.872699 -0.872705 -0.872709 -0.872711 -0.872712 -0.87271 -0.872706 -0.872699 
182 -0.826151 -0.826174 -0.826198 -0.826225 -0.826254 -0.826284 -0.826315 -0.826348 -0.826383 -0.826418 
183 -0.833898 -0.833925 -0.833955 -0.833988 -0.834023 -0.834061 -0.834101 -0.834144 -0.834189 -0.834235 
184 -0.834861 -0.834902 -0.834941 -0.834978 -0.835013 -0.835046 -0.835077 -0.835108 -0.835137 -0.835167 
185 -0.875028 -0.875073 -0.87512 -0.87517 -0.875223 -0.875277 -0.875332 -0.875388 -0.875444 -0.8755 
186 -0.885907 -0.88593 -0.885956 -0.885988 -0.886024 -0.886065 -0.886111 -0.886161 -0.886216 -0.886275 
187 -0.832178 -0.83223 -0.832284 -0.832339 -0.832394 -0.832449 -0.832503 -0.832557 -0.832609 -0.832658 
188 -0.858881 -0.85886 -0.85884 -0.858822 -0.858805 -0.85879 -0.858778 -0.858769 -0.858762 -0.85876 
189 -0.882506 -0.882481 -0.882458 -0.882437 -0.88242 -0.882405 -0.882395 -0.882389 -0.882388 -0.882391 
190 -0.849616 -0.849602 -0.849589 -0.849576 -0.849565 -0.849554 -0.849545 -0.849535 -0.849527 -0.849519 
191 -0.851364 -0.851356 -0.851347 -0.851338 -0.851329 -0.851319 -0.851309 -0.851299 -0.851288 -0.851277 
192 -0.804977 -0.805001 -0.805026 -0.805052 -0.805079 -0.805106 -0.805134 -0.805162 -0.805191 -0.80522 
193 -0.851364 -0.851356 -0.851347 -0.851338 -0.851329 -0.851319 -0.851309 -0.851299 -0.851288 -0.851277 
194 -0.861323 -0.861265 -0.861205 -0.861144 -0.861082 -0.861018 -0.860953 -0.860887 -0.86082 -0.860751 
195 -0.848474 -0.848446 -0.848415 -0.848383 -0.848349 -0.848316 -0.848283 -0.848251 -0.848222 -0.848197 
196 -0.846515 -0.846472 -0.846429 -0.846384 -0.846338 -0.846292 -0.846244 -0.846196 -0.846147 -0.846098 
197 -0.85096 -0.850962 -0.850962 -0.850963 -0.850964 -0.850964 -0.850964 -0.850963 -0.850962 -0.85096 
198 -0.851364 -0.851356 -0.851347 -0.851338 -0.851329 -0.851319 -0.851309 -0.851299 -0.851288 -0.851277 
199 -0.791851 -0.791885 -0.791925 -0.79197 -0.79202 -0.792075 -0.792134 -0.792196 -0.792262 -0.79233 
200 -0.827496 -0.827481 -0.827463 -0.827444 -0.827423 -0.827401 -0.827379 -0.827357 -0.827337 -0.827318 
201 -0.900506 -0.900464 -0.900421 -0.900379 -0.900337 -0.900298 -0.900261 -0.900228 -0.900198 -0.900174 
202 -0.851364 -0.851356 -0.851347 -0.851338 -0.851329 -0.851319 -0.851309 -0.851299 -0.851288 -0.851277 
203 -0.869937 -0.869915 -0.869892 -0.869865 -0.869836 -0.869805 -0.869771 -0.869734 -0.869694 -0.869652 
204 -0.851855 -0.851813 -0.85177 -0.851727 -0.851683 -0.851639 -0.851594 -0.851549 -0.851504 -0.851458 
205 -0.893759 -0.893765 -0.893775 -0.893788 -0.893804 -0.893824 -0.893848 -0.893875 -0.893907 -0.893941 
206 -0.851364 -0.851356 -0.851347 -0.851338 -0.851329 -0.851319 -0.851309 -0.851299 -0.851288 -0.851277 
207 -0.7703 -0.770325 -0.770351 -0.770377 -0.770404 -0.770431 -0.770459 -0.770486 -0.770514 -0.770542 
208 -0.852984 -0.852948 -0.852911 -0.852873 -0.852837 -0.852801 -0.852769 -0.85274 -0.852716 -0.852698 
209 -0.889246 -0.889262 -0.88928 -0.8893 -0.889322 -0.889346 -0.889371 -0.889399 -0.889427 -0.889457 
210 -0.910589 -0.910549 -0.910508 -0.910468 -0.910428 -0.910391 -0.910356 -0.910326 -0.9103 -0.91028 
211 -0.851364 -0.851356 -0.851347 -0.851338 -0.851329 -0.851319 -0.851309 -0.851299 -0.851288 -0.851277 
212 -0.851364 -0.851356 -0.851347 -0.851338 -0.851329 -0.851319 -0.851309 -0.851299 -0.851288 -0.851277 
213 -0.843921 -0.84392 -0.843916 -0.843912 -0.843906 -0.843899 -0.84389 -0.843881 -0.84387 -0.843858 
214 -0.757427 -0.757454 -0.757486 -0.757521 -0.75756 -0.757602 -0.757647 -0.757694 -0.757744 -0.757796 
215 -0.787745 -0.787727 -0.787702 -0.787672 -0.787637 -0.787599 -0.787557 -0.787513 -0.787468 -0.787423 
216 -0.795645 -0.795618 -0.795584 -0.795543 -0.795498 -0.795448 -0.795395 -0.795339 -0.795282 -0.795225 
217 -0.855129 -0.855055 -0.85498 -0.854904 -0.854826 -0.854746 -0.854665 -0.854582 -0.854498 -0.854411 
218 -0.835003 -0.834973 -0.834938 -0.834898 -0.834854 -0.834809 -0.834762 -0.834716 -0.834672 -0.834631 
219 -0.851869 -0.851858 -0.851846 -0.851834 -0.851822 -0.851809 -0.851796 -0.851782 -0.851768 -0.851754 
220 -0.943142 -0.943107 -0.943067 -0.943023 -0.942975 -0.942924 -0.94287 -0.942815 -0.942758 -0.942701 
221 -0.782626 -0.782613 -0.782596 -0.782575 -0.782551 -0.782524 -0.782495 -0.782465 -0.782434 -0.782402 
222 -0.726513 -0.726498 -0.726478 -0.726455 -0.726428 -0.726401 -0.726373 -0.726347 -0.726324 -0.726305 
223 -0.896384 -0.896356 -0.896321 -0.89628 -0.896232 -0.896179 -0.896122 -0.896061 -0.895998 -0.895934 
224 -0.917238 -0.9172 -0.917159 -0.917117 -0.917074 -0.917031 -0.916988 -0.916946 -0.916905 -0.916867 
225 -0.832072 -0.832134 -0.832198 -0.832262 -0.832326 -0.832391 -0.832456 -0.832521 -0.832586 -0.83265 
226 -0.797246 -0.79724 -0.797241 -0.797251 -0.797269 -0.797295 -0.79733 -0.797373 -0.797425 -0.797484 
227 -0.88105 -0.88105 -0.881043 -0.88103 -0.88101 -0.880984 -0.880954 -0.88092 -0.880882 -0.880844 
228 -0.820412 -0.82043 -0.820453 -0.820482 -0.820516 -0.820556 -0.820601 -0.820651 -0.820706 -0.820765 
229 -0.851364 -0.851356 -0.851347 -0.851338 -0.851329 -0.851319 -0.851309 -0.851299 -0.851288 -0.851277 
230 -0.851364 -0.851356 -0.851347 -0.851338 -0.851329 -0.851319 -0.851309 -0.851299 -0.851288 -0.851277 
231 -0.851364 -0.851356 -0.851347 -0.851338 -0.851329 -0.851319 -0.851309 -0.851299 -0.851288 -0.851277 
232 -1.08302 -1.08296 -1.0829 -1.08283 -1.08276 -1.08268 -1.08261 -1.08253 -1.08246 -1.0824 
233 -0.85137 -0.851361 -0.851352 -0.851343 -0.851333 -0.851324 -0.851313 -0.851303 -0.851292 -0.851281 
234 -0.977229 -0.977186 -0.977138 -0.977085 -0.977028 -0.976968 -0.976906 -0.976842 -0.976778 -0.976715 
235 -0.635794 -0.635851 -0.635899 -0.635938 -0.635968 -0.63599 -0.636003 -0.63601 -0.63601 -0.636005 
236 -0.908571 -0.908534 -0.908496 -0.908457 -0.908417 -0.908378 -0.908339 -0.908302 -0.908265 -0.908231 
237 -1.0985 -1.09846 -1.09841 -1.09836 -1.0983 -1.09823 -1.09817 -1.0981 -1.09804 -1.09798 
238 -0.852796 -0.852788 -0.852779 -0.85277 -0.85276 -0.852749 -0.852738 -0.852726 -0.852714 -0.8527 
239 -0.69634 -0.696401 -0.696452 -0.696492 -0.69652 -0.696537 -0.696543 -0.696539 -0.696525 -0.696502 
240 -0.758491 -0.758478 -0.758469 -0.758462 -0.758459 -0.75846 -0.758465 -0.758473 -0.758486 -0.758503 
241 -0.721802 -0.721804 -0.721804 -0.721803 -0.721801 -0.721799 -0.721796 -0.721792 -0.721789 -0.721785 
242 -0.851363 -0.851354 -0.851346 -0.851337 -0.851327 -0.851318 -0.851308 -0.851298 -0.851287 -0.851276 
243 -0.984281 -0.984242 -0.984199 -0.984153 -0.984104 -0.984052 -0.983999 -0.983945 -0.983891 -0.983837 
244 -1.11087 -1.1108 -1.11074 -1.11066 -1.11059 -1.11051 -1.11044 -1.11036 -1.11029 -1.11023 
245 -0.510026 -0.510108 -0.510189 -0.510269 -0.510347 -0.510423 -0.510497 -0.51057 -0.51064 -0.510709 
246 -1.04396 -1.0439 -1.04383 -1.04376 -1.04368 -1.0436 -1.04352 -1.04344 -1.04336 -1.04328 
247 -0.847595 -0.847583 -0.847572 -0.847562 -0.847554 -0.847546 -0.847539 -0.847534 -0.84753 -0.847527 
248 -0.851364 -0.851356 -0.851347 -0.851338 -0.851329 -0.851319 -0.851309 -0.851299 -0.851288 -0.851277 
249 -0.598158 -0.5982 -0.598242 -0.598282 -0.59832 -0.598356 -0.598392 -0.598426 -0.598459 -0.598491 
250 -0.810937 -0.810916 -0.810905 -0.810904 -0.810913 -0.810933 -0.810964 -0.811005 -0.811056 -0.811118 
251 -0.76448 -0.764453 -0.764436 -0.764428 -0.764431 -0.764445 -0.76447 -0.764505 -0.764551 -0.764607 
252 -0.733602 -0.733594 -0.733584 -0.733572 -0.733558 -0.733543 -0.733527 -0.733511 -0.733494 -0.733477 
253 -0.851364 -0.851356 -0.851347 -0.851338 -0.851329 -0.851319 -0.851309 -0.851299 -0.851288 -0.851277 
254 -0.881663 -0.881668 -0.881675 -0.881686 -0.881699 -0.881714 -0.881731 -0.88175 -0.881771 -0.881793 
255 -0.851316 -0.851312 -0.851308 -0.851304 -0.851299 -0.851294 -0.851288 -0.851282 -0.851276 -0.851269 
256 -0.859668 -0.859609 -0.859547 -0.859485 -0.859422 -0.859358 -0.859293 -0.859227 -0.859159 -0.859091 
257 -1.04391 -1.04388 -1.04383 -1.04379 -1.04374 -1.04369 -1.04363 -1.04358 -1.04352 -1.04346 
258 -0.82407 -0.82411 -0.824155 -0.824205 -0.82426 -0.824318 -0.824381 -0.824447 -0.824517 -0.824589 
259 -0.871118 -0.871127 -0.871137 -0.871148 -0.871159 -0.87117 -0.871182 -0.871193 -0.871204 -0.871214 
260 -0.620756 -0.620789 -0.620824 -0.620862 -0.620903 -0.620946 -0.620992 -0.62104 -0.621092 -0.621145 
261 -0.991683 -0.991638 -0.991589 -0.991537 -0.991482 -0.991425 -0.991366 -0.991306 -0.991245 -0.991185 
262 -1.02402 -1.02398 -1.02393 -1.02388 -1.02383 -1.02378 -1.02372 -1.02367 -1.02361 -1.02356 
263 -0.85142 -0.851411 -0.851403 -0.851394 -0.851384 -0.851375 -0.851365 -0.851354 -0.851344 -0.851332 
264 -0.837543 -0.837612 -0.837678 -0.837743 -0.837806 -0.837866 -0.837925 -0.837981 -0.838034 -0.838085 
265 -0.706128 -0.706115 -0.706102 -0.70609 -0.706079 -0.706069 -0.706061 -0.706054 -0.706048 -0.706044 
266 -0.665401 -0.665428 -0.665456 -0.665485 -0.665513 -0.665542 -0.66557 -0.665598 -0.665626 -0.665653 
267 -0.909104 -0.909066 -0.909028 -0.908989 -0.908951 -0.908913 -0.908876 -0.908839 -0.908804 -0.90877 
268 -0.84507 -0.845125 -0.84518 -0.845235 -0.845289 -0.845343 -0.845396 -0.845447 -0.845496 -0.845543 
269 -0.851364 -0.851355 -0.851347 -0.851338 -0.851328 -0.851319 -0.851309 -0.851299 -0.851288 -0.851277 
270 -1.00484 -1.00482 -1.0048 -1.00477 -1.00475 -1.00472 -1.0047 -1.00467 -1.00465 -1.00463 
271 -0.964933 -0.964883 -0.964832 -0.964778 -0.964722 -0.964665 -0.964608 -0.96455 -0.964493 -0.964437 
272 -0.687652 -0.687617 -0.687585 -0.687556 -0.687532 -0.687511 -0.687496 -0.687486 -0.687481 -0.687483 
273 -0.771076 -0.770997 -0.770925 -0.77086 -0.770804 -0.770757 -0.770719 -0.770693 -0.770677 -0.770673 
274 -0.730259 -0.730239 -0.73022 -0.730203 -0.730188 -0.730175 -0.730164 -0.730156 -0.73015 -0.730146 
275 -0.851156 -0.851139 -0.851121 -0.851103 -0.851085 -0.851066 -0.851047 -0.851027 -0.851006 -0.850985 
276 -0.976791 -0.976753 -0.976714 -0.976675 -0.976635 -0.976595 -0.976555 -0.976515 -0.976477 -0.97644 
277 -0.851364 -0.851356 -0.851347 -0.851338 -0.851329 -0.851319 -0.851309 -0.851299 -0.851288 -0.851277 
278 -0.711431 -0.711438 -0.711449 -0.711464 -0.711482 -0.711503 -0.711527 -0.711555 -0.711586 -0.711619 
279 -0.76178 -0.761726 -0.761676 -0.761631 -0.761592 -0.761559 -0.761533 -0.761513 -0.761499 -0.761492 
280 -0.935864 -0.935814 -0.935763 -0.93571 -0.935657 -0.935603 -0.935549 -0.935495 -0.935442 -0.93539 
281 -0.825032 -0.824943 -0.824852 -0.824759 -0.824664 -0.824569 -0.824475 -0.824383 -0.824294 -0.824208 
282 -0.939058 -0.939043 -0.939028 -0.939015 -0.939002 -0.938991 -0.938981 -0.938973 -0.938965 -0.938959 
283 -0.894898 -0.894871 -0.894847 -0.894824 -0.894802 -0.894782 -0.894764 -0.894747 -0.894733 -0.894719 
284 -0.800506 -0.800399 -0.800293 -0.800189 -0.800087 -0.799989 -0.799896 -0.799809 -0.799729 -0.799657 
285 -0.74462 -0.744529 -0.744431 -0.744327 -0.744219 -0.744107 -0.743994 -0.74388 -0.743766 -0.743655 
286 -0.851364 -0.851356 -0.851347 -0.851338 -0.851329 -0.851319 -0.851309 -0.851299 -0.851288 -0.851277 
287 -0.775248 -0.775269 -0.775284 -0.775294 -0.775298 -0.775297 -0.775292 -0.775282 -0.775269 -0.775252 