VARIABLES = "Cell" "Mode 0" "Mode 1" "Mode 2" "Mode 3" "Mode 4" "Mode 5" "Mode 6" "Mode 7" "Mode 8" "Mode 9" 
ZONE T = Iteration302
0 -0.850793 -0.850776 -0.85076 -0.850744 -0.850728 -0.850711 -0.850695 -0.850678 -0.850662 -0.850645 
1 -0.850793 -0.850776 -0.85076 -0.850744 -0.850728 -0.850711 -0.850695 -0.850678 -0.850662 -0.850645 
2 -0.850793 -0.850776 -0.85076 -0.850744 -0.850728 -0.850711 -0.850695 -0.850678 -0.850662 -0.850645 
3 -0.850793 -0.850776 -0.85076 -0.850744 -0.850728 -0.850711 -0.850695 -0.850678 -0.850662 -0.850645 
4 -0.850793 -0.850776 -0.85076 -0.850744 -0.850728 -0.850711 -0.850695 -0.850678 -0.850662 -0.850645 
5 -0.850793 -0.850776 -0.85076 -0.850744 -0.850728 -0.850711 -0.850695 -0.850678 -0.850662 -0.850645 
6 -0.850793 -0.850776 -0.85076 -0.850744 -0.850728 -0.850711 -0.850695 -0.850678 -0.850662 -0.850645 
7 -0.850793 -0.850776 -0.85076 -0.850744 -0.850728 -0.850711 -0.850695 -0.850678 -0.850662 -0.850645 
8 -0.850793 -0.850776 -0.85076 -0.850744 -0.850728 -0.850711 -0.850695 -0.850678 -0.850662 -0.850645 
9 -0.850793 -0.850776 -0.85076 -0.850744 -0.850728 -0.850711 -0.850695 -0.850678 -0.850662 -0.850645 
10 -0.850793 -0.850776 -0.85076 -0.850744 -0.850728 -0.850711 -0.850695 -0.850678 -0.850662 -0.850645 
11 -0.850793 -0.850776 -0.85076 -0.850744 -0.850728 -0.850711 -0.850695 -0.850678 -0.850662 -0.850645 
12 -0.850793 -0.850776 -0.85076 -0.850744 -0.850728 -0.850711 -0.850695 -0.850678 -0.850662 -0.850645 
13 -0.850793 -0.850776 -0.85076 -0.850744 -0.850728 -0.850711 -0.850695 -0.850678 -0.850662 -0.850645 
14 -0.850793 -0.850776 -0.85076 -0.850744 -0.850728 -0.850711 -0.850695 -0.850678 -0.850662 -0.850645 
15 -0.850793 -0.850776 -0.85076 -0.850744 -0.850728 -0.850711 -0.850695 -0.850678 -0.850662 -0.850645 
16 -0.850793 -0.850776 -0.85076 -0.850744 -0.850728 -0.850711 -0.850695 -0.850678 -0.850662 -0.850645 
17 -0.850793 -0.850776 -0.85076 -0.850744 -0.850728 -0.850711 -0.850695 -0.850678 -0.850662 -0.850645 
18 -0.850793 -0.850776 -0.85076 -0.850744 -0.850728 -0.850711 -0.850695 -0.850678 -0.850662 -0.850645 
19 -0.850793 -0.850776 -0.85076 -0.850744 -0.850728 -0.850711 -0.850695 -0.850678 -0.850662 -0.850645 
20 -0.850793 -0.850776 -0.85076 -0.850744 -0.850728 -0.850711 -0.850695 -0.850678 -0.850662 -0.850645 
21 -0.850793 -0.850776 -0.85076 -0.850744 -0.850728 -0.850711 -0.850695 -0.850678 -0.850662 -0.850645 
22 -0.850793 -0.850776 -0.85076 -0.850744 -0.850728 -0.850711 -0.850695 -0.850678 -0.850662 -0.850645 
23 -0.850793 -0.850776 -0.85076 -0.850744 -0.850728 -0.850711 -0.850695 -0.850678 -0.850662 -0.850645 
24 -0.850793 -0.850776 -0.85076 -0.850744 -0.850728 -0.850711 -0.850695 -0.850678 -0.850662 -0.850645 
25 -0.850793 -0.850776 -0.85076 -0.850744 -0.850728 -0.850711 -0.850695 -0.850678 -0.850662 -0.850645 
26 -0.850793 -0.850776 -0.85076 -0.850744 -0.850728 -0.850711 -0.850695 -0.850678 -0.850662 -0.850645 
27 -0.850793 -0.850776 -0.85076 -0.850744 -0.850728 -0.850711 -0.850695 -0.850678 -0.850662 -0.850645 
28 -0.850793 -0.850776 -0.85076 -0.850744 -0.850728 -0.850711 -0.850695 -0.850678 -0.850662 -0.850645 
29 -0.850793 -0.850776 -0.85076 -0.850744 -0.850728 -0.850711 -0.850695 -0.850678 -0.850662 -0.850645 
30 -0.850793 -0.850776 -0.85076 -0.850744 -0.850728 -0.850711 -0.850695 -0.850678 -0.850662 -0.850645 
31 -0.850793 -0.850776 -0.85076 -0.850744 -0.850728 -0.850711 -0.850695 -0.850678 -0.850662 -0.850645 
32 -0.850793 -0.850776 -0.85076 -0.850744 -0.850728 -0.850711 -0.850695 -0.850678 -0.850662 -0.850645 
33 -0.850793 -0.850776 -0.85076 -0.850744 -0.850728 -0.850711 -0.850695 -0.850678 -0.850662 -0.850645 
34 -0.850793 -0.850776 -0.85076 -0.850744 -0.850728 -0.850711 -0.850695 -0.850678 -0.850662 -0.850645 
35 -0.850793 -0.850776 -0.85076 -0.850744 -0.850728 -0.850711 -0.850695 -0.850678 -0.850662 -0.850645 
36 -0.850793 -0.850776 -0.85076 -0.850744 -0.850728 -0.850711 -0.850695 -0.850678 -0.850662 -0.850645 
37 -0.850793 -0.850776 -0.85076 -0.850744 -0.850728 -0.850711 -0.850695 -0.850678 -0.850662 -0.850645 
38 -0.850793 -0.850776 -0.85076 -0.850744 -0.850728 -0.850711 -0.850695 -0.850678 -0.850662 -0.850645 
39 -0.850793 -0.850776 -0.85076 -0.850744 -0.850728 -0.850711 -0.850695 -0.850678 -0.850662 -0.850645 
40 -0.850793 -0.850776 -0.85076 -0.850744 -0.850728 -0.850711 -0.850695 -0.850678 -0.850662 -0.850645 
41 -0.850793 -0.850776 -0.85076 -0.850744 -0.850728 -0.850711 -0.850695 -0.850678 -0.850662 -0.850645 
42 -0.850793 -0.850776 -0.85076 -0.850744 -0.850728 -0.850711 -0.850695 -0.850678 -0.850662 -0.850645 
43 -0.850793 -0.850776 -0.85076 -0.850744 -0.850728 -0.850711 -0.850695 -0.850678 -0.850662 -0.850645 
44 -0.850793 -0.850776 -0.85076 -0.850744 -0.850728 -0.850711 -0.850695 -0.850678 -0.850662 -0.850645 
45 -0.850793 -0.850776 -0.85076 -0.850744 -0.850728 -0.850711 -0.850695 -0.850678 -0.850662 -0.850645 
46 -0.850793 -0.850776 -0.85076 -0.850744 -0.850728 -0.850711 -0.850695 -0.850678 -0.850662 -0.850645 
47 -0.850793 -0.850776 -0.85076 -0.850744 -0.850728 -0.850711 -0.850695 -0.850678 -0.850662 -0.850645 
48 -0.850793 -0.850776 -0.85076 -0.850744 -0.850728 -0.850711 -0.850695 -0.850678 -0.850662 -0.850645 
49 -0.850793 -0.850776 -0.85076 -0.850744 -0.850728 -0.850711 -0.850695 -0.850678 -0.850662 -0.850645 
50 -0.850793 -0.850776 -0.85076 -0.850744 -0.850728 -0.850711 -0.850695 -0.850678 -0.850662 -0.850645 
51 -0.850793 -0.850776 -0.85076 -0.850744 -0.850728 -0.850711 -0.850695 -0.850678 -0.850662 -0.850645 
52 -0.850793 -0.850776 -0.85076 -0.850744 -0.850728 -0.850711 -0.850695 -0.850678 -0.850662 -0.850645 
53 -0.850793 -0.850776 -0.85076 -0.850744 -0.850728 -0.850711 -0.850695 -0.850678 -0.850662 -0.850645 
54 -0.850793 -0.850776 -0.85076 -0.850744 -0.850728 -0.850711 -0.850695 -0.850678 -0.850662 -0.850645 
55 -0.850793 -0.850776 -0.85076 -0.850744 -0.850728 -0.850711 -0.850695 -0.850678 -0.850662 -0.850645 
56 -0.850793 -0.850776 -0.85076 -0.850744 -0.850728 -0.850711 -0.850695 -0.850678 -0.850662 -0.850645 
57 -0.850793 -0.850776 -0.85076 -0.850744 -0.850728 -0.850711 -0.850695 -0.850678 -0.850662 -0.850645 
58 -0.850793 -0.850776 -0.85076 -0.850744 -0.850728 -0.850711 -0.850695 -0.850678 -0.850662 -0.850645 
59 -0.850793 -0.850776 -0.85076 -0.850744 -0.850728 -0.850711 -0.850695 -0.850678 -0.850662 -0.850645 
60 -0.850793 -0.850776 -0.85076 -0.850744 -0.850728 -0.850711 -0.850695 -0.850678 -0.850662 -0.850645 
61 -0.850793 -0.850776 -0.85076 -0.850744 -0.850728 -0.850711 -0.850695 -0.850678 -0.850662 -0.850645 
62 -0.850793 -0.850776 -0.85076 -0.850744 -0.850728 -0.850711 -0.850695 -0.850678 -0.850662 -0.850645 
63 -0.850793 -0.850776 -0.85076 -0.850744 -0.850728 -0.850711 -0.850695 -0.850678 -0.850662 -0.850645 
64 -0.850793 -0.850776 -0.85076 -0.850744 -0.850728 -0.850711 -0.850695 -0.850678 -0.850662 -0.850645 
65 -0.850793 -0.850776 -0.85076 -0.850744 -0.850728 -0.850711 -0.850695 -0.850678 -0.850662 -0.850645 
66 -0.850793 -0.850776 -0.85076 -0.850744 -0.850728 -0.850711 -0.850695 -0.850678 -0.850662 -0.850645 
67 -0.850792 -0.850776 -0.85076 -0.850744 -0.850728 -0.850711 -0.850695 -0.850678 -0.850662 -0.850645 
68 -0.850793 -0.850776 -0.85076 -0.850744 -0.850728 -0.850711 -0.850695 -0.850678 -0.850662 -0.850645 
69 -0.850793 -0.850776 -0.85076 -0.850744 -0.850728 -0.850711 -0.850695 -0.850678 -0.850662 -0.850645 
70 -0.850793 -0.850776 -0.85076 -0.850744 -0.850728 -0.850711 -0.850695 -0.850678 -0.850662 -0.850645 
71 -0.850793 -0.850776 -0.85076 -0.850744 -0.850728 -0.850711 -0.850695 -0.850678 -0.850662 -0.850645 
72 -0.850792 -0.850776 -0.85076 -0.850744 -0.850727 -0.850711 -0.850695 -0.850678 -0.850662 -0.850645 
73 -0.850793 -0.850776 -0.85076 -0.850744 -0.850728 -0.850711 -0.850695 -0.850678 -0.850662 -0.850645 
74 -0.850793 -0.850776 -0.85076 -0.850744 -0.850728 -0.850711 -0.850695 -0.850678 -0.850662 -0.850645 
75 -0.850793 -0.850776 -0.85076 -0.850744 -0.850728 -0.850711 -0.850695 -0.850678 -0.850662 -0.850645 
76 -0.850793 -0.850776 -0.85076 -0.850744 -0.850728 -0.850711 -0.850695 -0.850678 -0.850662 -0.850645 
77 -0.850793 -0.850776 -0.85076 -0.850744 -0.850728 -0.850711 -0.850695 -0.850678 -0.850662 -0.850645 
78 -0.850792 -0.850776 -0.85076 -0.850744 -0.850728 -0.850711 -0.850695 -0.850678 -0.850662 -0.850645 
79 -0.850791 -0.850774 -0.850758 -0.850742 -0.850726 -0.85071 -0.850693 -0.850677 -0.85066 -0.850644 
80 -0.850794 -0.850777 -0.850761 -0.850745 -0.850729 -0.850712 -0.850696 -0.850679 -0.850662 -0.850646 
81 -0.850793 -0.850776 -0.85076 -0.850744 -0.850727 -0.850711 -0.850695 -0.850678 -0.850661 -0.850645 
82 -0.850791 -0.850774 -0.850758 -0.850742 -0.850726 -0.85071 -0.850693 -0.850677 -0.85066 -0.850643 
83 -0.850792 -0.850776 -0.85076 -0.850743 -0.850727 -0.850711 -0.850694 -0.850678 -0.850661 -0.850645 
84 -0.850792 -0.850776 -0.850759 -0.850743 -0.850727 -0.850711 -0.850694 -0.850678 -0.850661 -0.850644 
85 -0.85079 -0.850774 -0.850758 -0.850741 -0.850725 -0.850709 -0.850693 -0.850676 -0.85066 -0.850643 
86 -0.850793 -0.850777 -0.850761 -0.850744 -0.850728 -0.850712 -0.850695 -0.850679 -0.850662 -0.850645 
87 -0.850793 -0.850776 -0.85076 -0.850744 -0.850728 -0.850711 -0.850695 -0.850678 -0.850662 -0.850645 
88 -0.850794 -0.850777 -0.850761 -0.850745 -0.850728 -0.850712 -0.850696 -0.850679 -0.850662 -0.850646 
89 -0.850805 -0.850788 -0.850771 -0.850753 -0.850736 -0.850719 -0.850702 -0.850684 -0.850667 -0.850649 
90 -0.850793 -0.850776 -0.85076 -0.850744 -0.850728 -0.850711 -0.850695 -0.850678 -0.850662 -0.850645 
91 -0.850769 -0.850753 -0.850738 -0.850723 -0.850707 -0.850692 -0.850676 -0.85066 -0.850644 -0.850628 
92 -0.850798 -0.850782 -0.850765 -0.850748 -0.850731 -0.850714 -0.850697 -0.85068 -0.850663 -0.850645 
93 -0.850789 -0.850772 -0.850755 -0.850737 -0.85072 -0.850703 -0.850685 -0.850668 -0.85065 -0.850632 
94 -0.850793 -0.850776 -0.85076 -0.850744 -0.850728 -0.850711 -0.850695 -0.850678 -0.850662 -0.850645 
95 -0.8507 -0.850684 -0.850669 -0.850653 -0.850638 -0.850622 -0.850607 -0.850591 -0.850575 -0.850559 
96 -0.850746 -0.850731 -0.850716 -0.850701 -0.850686 -0.850671 -0.850656 -0.850641 -0.850626 -0.85061 
97 -0.850798 -0.850781 -0.850763 -0.850745 -0.850727 -0.850709 -0.850691 -0.850673 -0.850655 -0.850637 
98 -0.850793 -0.850777 -0.850761 -0.850744 -0.850728 -0.850712 -0.850695 -0.850679 -0.850662 -0.850645 
99 -0.851012 -0.851 -0.850988 -0.850976 -0.850963 -0.85095 -0.850937 -0.850923 -0.850909 -0.850894 
100 -0.850934 -0.850906 -0.850878 -0.850851 -0.850823 -0.850796 -0.850769 -0.850742 -0.850715 -0.850688 
101 -0.850808 -0.850791 -0.850775 -0.850758 -0.850742 -0.850725 -0.850708 -0.850691 -0.850675 -0.850658 
102 -0.851148 -0.85113 -0.851112 -0.851094 -0.851075 -0.851057 -0.851038 -0.851018 -0.850999 -0.850979 
103 -0.850785 -0.850768 -0.850752 -0.850735 -0.850719 -0.850702 -0.850685 -0.850668 -0.850652 -0.850635 
104 -0.851195 -0.85117 -0.851145 -0.851119 -0.851094 -0.851068 -0.851042 -0.851016 -0.85099 -0.850964 
105 -0.850554 -0.850541 -0.850528 -0.850514 -0.850501 -0.850489 -0.850476 -0.850463 -0.85045 -0.850438 
106 -0.850776 -0.85076 -0.850744 -0.850728 -0.850711 -0.850695 -0.850679 -0.850663 -0.850646 -0.85063 
107 -0.850793 -0.850776 -0.85076 -0.850744 -0.850728 -0.850711 -0.850695 -0.850678 -0.850662 -0.850645 
108 -0.850964 -0.850946 -0.850929 -0.850911 -0.850893 -0.850875 -0.850857 -0.850839 -0.850821 -0.850802 
109 -0.850636 -0.850632 -0.850628 -0.850624 -0.850619 -0.850614 -0.850609 -0.850603 -0.850597 -0.850591 
110 -0.849794 -0.849812 -0.849831 -0.84985 -0.84987 -0.849889 -0.849908 -0.849928 -0.849947 -0.849966 
111 -0.851937 -0.851934 -0.85193 -0.851924 -0.851918 -0.851911 -0.851902 -0.851893 -0.851882 -0.85187 
112 -0.850817 -0.850799 -0.850781 -0.850763 -0.850745 -0.850727 -0.850709 -0.850691 -0.850672 -0.850654 
113 -0.850792 -0.850776 -0.85076 -0.850744 -0.850728 -0.850711 -0.850695 -0.850678 -0.850662 -0.850645 
114 -0.850715 -0.850708 -0.8507 -0.850692 -0.850683 -0.850675 -0.850666 -0.850658 -0.850649 -0.850639 
115 -0.849842 -0.849789 -0.849737 -0.849686 -0.849635 -0.849585 -0.849536 -0.849487 -0.84944 -0.849393 
116 -0.851195 -0.851181 -0.851167 -0.851152 -0.851137 -0.851122 -0.851106 -0.85109 -0.851074 -0.851057 
117 -0.850733 -0.850765 -0.850797 -0.850828 -0.850859 -0.850889 -0.850919 -0.850948 -0.850977 -0.851005 
118 -0.848805 -0.848797 -0.848789 -0.848783 -0.848777 -0.848771 -0.848767 -0.848763 -0.84876 -0.848758 
119 -0.848751 -0.84877 -0.848789 -0.848808 -0.848827 -0.848847 -0.848867 -0.848887 -0.848907 -0.848927 
120 -0.850727 -0.850735 -0.850745 -0.850754 -0.850765 -0.850776 -0.850787 -0.850799 -0.850812 -0.850825 
121 -0.852688 -0.852645 -0.8526 -0.852554 -0.852506 -0.852456 -0.852405 -0.852351 -0.852297 -0.852241 
122 -0.847603 -0.847588 -0.847575 -0.847564 -0.847554 -0.847545 -0.847539 -0.847533 -0.847529 -0.847527 
123 -0.848564 -0.848593 -0.848622 -0.848651 -0.848681 -0.848711 -0.848741 -0.848771 -0.848802 -0.848833 
124 -0.853498 -0.853486 -0.853473 -0.85346 -0.853446 -0.85343 -0.853414 -0.853398 -0.85338 -0.853361 
125 -0.852512 -0.852473 -0.852434 -0.852393 -0.852351 -0.852309 -0.852265 -0.852219 -0.852173 -0.852126 
126 -0.850792 -0.850776 -0.85076 -0.850743 -0.850727 -0.850711 -0.850694 -0.850678 -0.850661 -0.850645 
127 -0.848512 -0.848454 -0.848397 -0.84834 -0.848284 -0.848229 -0.848174 -0.848121 -0.848068 -0.848016 
128 -0.855035 -0.855012 -0.854988 -0.854963 -0.854938 -0.854911 -0.854883 -0.854855 -0.854825 -0.854795 
129 -0.854298 -0.854365 -0.854432 -0.854499 -0.854567 -0.854634 -0.854701 -0.854768 -0.854834 -0.854901 
130 -0.85363 -0.853664 -0.853698 -0.853731 -0.853763 -0.853795 -0.853826 -0.853857 -0.853887 -0.853916 
131 -0.848188 -0.848161 -0.848132 -0.848104 -0.848074 -0.848044 -0.848014 -0.847982 -0.847951 -0.847918 
132 -0.846617 -0.846537 -0.846457 -0.846378 -0.846299 -0.84622 -0.846142 -0.846065 -0.845988 -0.845912 
133 -0.851084 -0.851081 -0.851078 -0.851075 -0.851073 -0.85107 -0.851067 -0.851064 -0.851061 -0.851059 
134 -0.850418 -0.850343 -0.850268 -0.850193 -0.850117 -0.85004 -0.849963 -0.849886 -0.849809 -0.849731 
135 -0.846281 -0.846194 -0.846108 -0.846024 -0.845941 -0.84586 -0.84578 -0.845702 -0.845625 -0.845551 
136 -0.850788 -0.850772 -0.850756 -0.850739 -0.850723 -0.850707 -0.85069 -0.850674 -0.850657 -0.850641 
137 -0.850688 -0.850681 -0.850675 -0.850668 -0.850661 -0.850654 -0.850646 -0.850639 -0.850631 -0.850623 
138 -0.853818 -0.853839 -0.853858 -0.853876 -0.853891 -0.853906 -0.853918 -0.853929 -0.853937 -0.853944 
139 -0.84717 -0.847106 -0.847043 -0.84698 -0.846917 -0.846855 -0.846794 -0.846733 -0.846673 -0.846613 
140 -0.849063 -0.849044 -0.849026 -0.849008 -0.848991 -0.848975 -0.848959 -0.848944 -0.848929 -0.848915 
141 -0.853164 -0.853256 -0.853348 -0.853441 -0.853535 -0.853628 -0.853722 -0.853817 -0.853911 -0.854005 
142 -0.847163 -0.847067 -0.84697 -0.846873 -0.846775 -0.846676 -0.846577 -0.846477 -0.846376 -0.846275 
143 -0.855639 -0.855622 -0.855605 -0.855588 -0.85557 -0.855552 -0.855534 -0.855516 -0.855497 -0.855478 
144 -0.852712 -0.852702 -0.852691 -0.852677 -0.852663 -0.852646 -0.852628 -0.852608 -0.852587 -0.852563 
145 -0.846099 -0.846053 -0.846009 -0.845966 -0.845924 -0.845883 -0.845842 -0.845803 -0.845765 -0.845728 
146 -0.854705 -0.854692 -0.854678 -0.854661 -0.854642 -0.854621 -0.854598 -0.854573 -0.854546 -0.854516 
147 -0.855787 -0.855798 -0.85581 -0.855823 -0.855837 -0.855851 -0.855866 -0.855881 -0.855897 -0.855914 
148 -0.846908 -0.846839 -0.846769 -0.846698 -0.846627 -0.846555 -0.846483 -0.846409 -0.846336 -0.846261 
149 -0.855766 -0.855803 -0.855839 -0.855875 -0.855911 -0.855946 -0.855981 -0.856015 -0.856048 -0.856081 
150 -0.854104 -0.854031 -0.853958 -0.853886 -0.853814 -0.853744 -0.853675 -0.853607 -0.85354 -0.853474 
151 -0.848213 -0.848124 -0.848033 -0.847942 -0.847851 -0.847759 -0.847667 -0.847575 -0.847483 -0.84739 
152 -0.846815 -0.846782 -0.846748 -0.846716 -0.846683 -0.846651 -0.84662 -0.84659 -0.846559 -0.84653 
153 -0.853461 -0.853423 -0.85338 -0.853332 -0.85328 -0.853223 -0.853162 -0.853097 -0.853027 -0.852952 
154 -0.850207 -0.850139 -0.850069 -0.849997 -0.849924 -0.84985 -0.849774 -0.849697 -0.849618 -0.849539 
155 -0.845366 -0.845312 -0.84526 -0.845209 -0.845159 -0.845112 -0.845066 -0.845021 -0.844979 -0.844938 
156 -0.858317 -0.858362 -0.858406 -0.858448 -0.858488 -0.858526 -0.858562 -0.858595 -0.858625 -0.858652 
157 -0.858788 -0.858797 -0.858803 -0.858808 -0.85881 -0.85881 -0.858808 -0.858804 -0.858798 -0.858789 
158 -0.844747 -0.844731 -0.844718 -0.844708 -0.8447 -0.844694 -0.844691 -0.84469 -0.844692 -0.844695 
159 -0.849739 -0.849744 -0.849749 -0.849754 -0.849759 -0.849764 -0.84977 -0.849775 -0.849781 -0.849787 
160 -0.854021 -0.853913 -0.853807 -0.853702 -0.853598 -0.853496 -0.853396 -0.853297 -0.853201 -0.853107 
161 -0.83776 -0.837735 -0.837708 -0.837681 -0.837652 -0.837623 -0.837592 -0.83756 -0.837526 -0.837492 
162 -0.848314 -0.84831 -0.848302 -0.848291 -0.848277 -0.848261 -0.848242 -0.848221 -0.848197 -0.848171 
163 -0.841367 -0.841342 -0.841316 -0.841292 -0.841267 -0.841244 -0.841222 -0.841201 -0.841182 -0.841165 
164 -0.859957 -0.86001 -0.860063 -0.860117 -0.86017 -0.860223 -0.860275 -0.860327 -0.860377 -0.860425 
165 -0.859717 -0.859673 -0.859628 -0.85958 -0.859529 -0.859477 -0.859423 -0.859367 -0.859308 -0.859248 
166 -0.835841 -0.835831 -0.835821 -0.83581 -0.835799 -0.835788 -0.835777 -0.835766 -0.835755 -0.835744 
167 -0.855114 -0.855158 -0.855201 -0.855244 -0.855287 -0.855329 -0.85537 -0.85541 -0.855449 -0.855486 
168 -0.839989 -0.839994 -0.839997 -0.839998 -0.839998 -0.839996 -0.839992 -0.839986 -0.839978 -0.839969 
169 -0.857971 -0.857865 -0.857758 -0.857652 -0.857545 -0.857439 -0.857333 -0.857229 -0.857125 -0.857022 
170 -0.864818 -0.864856 -0.864896 -0.864938 -0.86498 -0.865024 -0.865068 -0.865112 -0.865156 -0.865199 
171 -0.86433 -0.864343 -0.864355 -0.864368 -0.86438 -0.864391 -0.864401 -0.864409 -0.864414 -0.864418 
172 -0.842513 -0.842511 -0.842507 -0.842501 -0.842494 -0.842484 -0.842473 -0.842459 -0.842443 -0.842425 
173 -0.850793 -0.850776 -0.85076 -0.850744 -0.850728 -0.850711 -0.850695 -0.850678 -0.850662 -0.850645 
174 -0.863037 -0.863065 -0.86309 -0.863112 -0.863132 -0.86315 -0.863167 -0.863182 -0.863197 -0.863211 
175 -0.872275 -0.872277 -0.87228 -0.872286 -0.872293 -0.872303 -0.872316 -0.872331 -0.872349 -0.872371 
176 -0.844288 -0.844346 -0.844404 -0.844461 -0.844517 -0.844573 -0.844627 -0.844681 -0.844733 -0.844784 
177 -0.83491 -0.834952 -0.834994 -0.835034 -0.835074 -0.835111 -0.835147 -0.83518 -0.835211 -0.835239 
178 -0.870803 -0.8708 -0.870797 -0.870795 -0.870794 -0.870795 -0.870798 -0.870804 -0.870814 -0.870828 
179 -0.850793 -0.850776 -0.85076 -0.850744 -0.850728 -0.850711 -0.850695 -0.850678 -0.850662 -0.850645 
180 -0.849645 -0.849664 -0.849679 -0.849691 -0.849701 -0.849709 -0.849715 -0.849721 -0.849727 -0.849733 
181 -0.87194 -0.871929 -0.87192 -0.871912 -0.871906 -0.871901 -0.871897 -0.871894 -0.871892 -0.871891 
182 -0.827882 -0.827944 -0.828007 -0.82807 -0.828133 -0.828198 -0.828262 -0.828326 -0.82839 -0.828453 
183 -0.836042 -0.836106 -0.83617 -0.836236 -0.836303 -0.836371 -0.83644 -0.83651 -0.836581 -0.836653 
184 -0.836765 -0.836806 -0.836842 -0.836872 -0.836895 -0.836912 -0.836921 -0.836924 -0.836919 -0.836906 
185 -0.875862 -0.875861 -0.875864 -0.875872 -0.875884 -0.8759 -0.875921 -0.875946 -0.875975 -0.876008 
186 -0.888125 -0.888125 -0.888122 -0.888117 -0.888109 -0.8881 -0.88809 -0.88808 -0.888069 -0.88806 
187 -0.833421 -0.833467 -0.833516 -0.833568 -0.833623 -0.83368 -0.833739 -0.8338 -0.833861 -0.833922 
188 -0.860294 -0.860349 -0.860402 -0.860453 -0.860503 -0.860551 -0.860598 -0.860643 -0.860687 -0.860731 
189 -0.884031 -0.884059 -0.884082 -0.884101 -0.884115 -0.884126 -0.884134 -0.884139 -0.884142 -0.884144 
190 -0.849369 -0.849362 -0.849353 -0.849344 -0.849334 -0.849322 -0.84931 -0.849297 -0.849283 -0.849268 
191 -0.850793 -0.850776 -0.85076 -0.850744 -0.850728 -0.850711 -0.850695 -0.850678 -0.850662 -0.850645 
192 -0.806861 -0.806956 -0.807053 -0.807152 -0.807254 -0.807357 -0.807461 -0.807567 -0.807673 -0.80778 
193 -0.850793 -0.850776 -0.85076 -0.850744 -0.850728 -0.850711 -0.850695 -0.850678 -0.850662 -0.850645 
194 -0.858419 -0.858347 -0.858274 -0.858202 -0.858129 -0.858057 -0.857985 -0.857913 -0.857841 -0.85777 
195 -0.851355 -0.851537 -0.851716 -0.851893 -0.852066 -0.852235 -0.852399 -0.852557 -0.85271 -0.852857 
196 -0.84473 -0.844712 -0.844697 -0.844684 -0.844672 -0.844663 -0.844656 -0.844651 -0.844648 -0.844647 
197 -0.850375 -0.850336 -0.850295 -0.850253 -0.850209 -0.850164 -0.850117 -0.850068 -0.850018 -0.849966 
198 -0.850793 -0.850776 -0.85076 -0.850744 -0.850728 -0.850711 -0.850695 -0.850678 -0.850662 -0.850645 
199 -0.794153 -0.794216 -0.794282 -0.794352 -0.794427 -0.794506 -0.794589 -0.794676 -0.794768 -0.794864 
200 -0.829946 -0.83011 -0.830274 -0.830435 -0.830594 -0.830751 -0.830904 -0.831053 -0.831198 -0.831338 
201 -0.90215 -0.902238 -0.902322 -0.902404 -0.902482 -0.902557 -0.902629 -0.902698 -0.902764 -0.902827 
202 -0.850793 -0.850776 -0.85076 -0.850744 -0.850728 -0.850711 -0.850695 -0.850678 -0.850662 -0.850645 
203 -0.868103 -0.868076 -0.868049 -0.868023 -0.867997 -0.867972 -0.867947 -0.867922 -0.867896 -0.867871 
204 -0.850143 -0.850115 -0.850087 -0.850061 -0.850036 -0.850012 -0.849988 -0.849966 -0.849944 -0.849923 
205 -0.895163 -0.895149 -0.895132 -0.895111 -0.895089 -0.895064 -0.895038 -0.895011 -0.894984 -0.894957 
206 -0.850793 -0.850776 -0.85076 -0.850744 -0.850728 -0.850711 -0.850695 -0.850678 -0.850662 -0.850645 
207 -0.772495 -0.772613 -0.772734 -0.772857 -0.772982 -0.773109 -0.773237 -0.773366 -0.773495 -0.773625 
208 -0.857416 -0.857657 -0.857894 -0.858127 -0.858354 -0.858575 -0.85879 -0.858997 -0.859196 -0.859388 
209 -0.889868 -0.889845 -0.88982 -0.889795 -0.88977 -0.889745 -0.889719 -0.889695 -0.889672 -0.88965 
210 -0.914249 -0.914446 -0.914639 -0.914829 -0.915014 -0.915194 -0.915369 -0.915538 -0.915701 -0.915859 
211 -0.850793 -0.850776 -0.85076 -0.850744 -0.850728 -0.850711 -0.850695 -0.850678 -0.850662 -0.850645 
212 -0.850793 -0.850776 -0.85076 -0.850744 -0.850728 -0.850711 -0.850695 -0.850678 -0.850662 -0.850645 
213 -0.84278 -0.842721 -0.84266 -0.842597 -0.842534 -0.84247 -0.842405 -0.84234 -0.842274 -0.842209 
214 -0.759785 -0.75987 -0.759959 -0.76005 -0.760144 -0.760241 -0.760341 -0.760444 -0.76055 -0.760658 
215 -0.790709 -0.790947 -0.791184 -0.791418 -0.791649 -0.791876 -0.792097 -0.792312 -0.792519 -0.792719 
216 -0.798035 -0.798262 -0.798487 -0.79871 -0.79893 -0.799145 -0.799354 -0.799557 -0.799752 -0.799939 
217 -0.851301 -0.851212 -0.851124 -0.851038 -0.850953 -0.850869 -0.850788 -0.850708 -0.850629 -0.850552 
218 -0.840731 -0.841093 -0.841451 -0.841804 -0.842149 -0.842486 -0.842813 -0.843129 -0.843435 -0.843727 
219 -0.851153 -0.851133 -0.851113 -0.851093 -0.851073 -0.851053 -0.851033 -0.851013 -0.850992 -0.850972 
220 -0.944044 -0.944184 -0.944325 -0.944465 -0.944605 -0.944742 -0.944877 -0.94501 -0.945138 -0.945263 
221 -0.784866 -0.785052 -0.785238 -0.785423 -0.785607 -0.785788 -0.785966 -0.786141 -0.786311 -0.786476 
222 -0.733177 -0.73356 -0.733938 -0.73431 -0.734676 -0.735034 -0.735382 -0.73572 -0.736048 -0.736363 
223 -0.898262 -0.898471 -0.89868 -0.898887 -0.899092 -0.899293 -0.89949 -0.89968 -0.899865 -0.900042 
224 -0.917552 -0.917598 -0.917642 -0.917683 -0.917722 -0.917758 -0.917792 -0.917823 -0.917851 -0.917877 
225 -0.833838 -0.833837 -0.833832 -0.833824 -0.833812 -0.833797 -0.833777 -0.833754 -0.833728 -0.833697 
226 -0.799953 -0.799978 -0.8 -0.800023 -0.800045 -0.800067 -0.80009 -0.800115 -0.800142 -0.800171 
227 -0.885026 -0.885328 -0.88563 -0.885931 -0.886229 -0.886522 -0.886811 -0.887094 -0.887369 -0.887637 
228 -0.822221 -0.822213 -0.822204 -0.822194 -0.822183 -0.822172 -0.822162 -0.822151 -0.822142 -0.822133 
229 -0.850793 -0.850776 -0.85076 -0.850744 -0.850728 -0.850711 -0.850695 -0.850678 -0.850662 -0.850645 
230 -0.850793 -0.850776 -0.85076 -0.850744 -0.850728 -0.850711 -0.850695 -0.850678 -0.850662 -0.850645 
231 -0.850792 -0.850776 -0.85076 -0.850744 -0.850728 -0.850711 -0.850695 -0.850678 -0.850662 -0.850645 
232 -1.09065 -1.09112 -1.09159 -1.09205 -1.09251 -1.09295 -1.09338 -1.0938 -1.0942 -1.09459 
233 -0.850792 -0.850776 -0.850759 -0.850743 -0.850727 -0.85071 -0.850693 -0.850677 -0.85066 -0.850643 
234 -0.978609 -0.978775 -0.978941 -0.979106 -0.979268 -0.979427 -0.979583 -0.979734 -0.979881 -0.980022 
235 -0.640386 -0.640721 -0.641061 -0.641403 -0.641745 -0.642087 -0.642426 -0.64276 -0.643089 -0.64341 
236 -0.908288 -0.908292 -0.908293 -0.908293 -0.90829 -0.908284 -0.908277 -0.908269 -0.908259 -0.908248 
237 -1.10538 -1.10583 -1.10628 -1.10671 -1.10715 -1.10757 -1.10798 -1.10839 -1.10878 -1.10916 
238 -0.852025 -0.851999 -0.851974 -0.851948 -0.851921 -0.851895 -0.851868 -0.851841 -0.851814 -0.851787 
239 -0.699325 -0.699608 -0.699895 -0.700186 -0.70048 -0.700774 -0.701067 -0.701358 -0.701644 -0.701924 
240 -0.7604 -0.760469 -0.760536 -0.760603 -0.760668 -0.760733 -0.760796 -0.760859 -0.760921 -0.760983 
241 -0.724029 -0.724186 -0.724344 -0.724504 -0.724664 -0.724824 -0.724984 -0.725142 -0.725299 -0.725453 
242 -0.850792 -0.850776 -0.85076 -0.850744 -0.850727 -0.850711 -0.850695 -0.850678 -0.850661 -0.850645 
243 -0.984851 -0.984958 -0.985066 -0.985172 -0.985277 -0.98538 -0.985481 -0.985579 -0.985673 -0.985764 
244 -1.11552 -1.11583 -1.11613 -1.11643 -1.11672 -1.11701 -1.11729 -1.11755 -1.11781 -1.11805 
245 -0.514712 -0.51496 -0.515211 -0.515466 -0.515722 -0.515979 -0.516235 -0.51649 -0.516743 -0.516992 
246 -1.04596 -1.04617 -1.04637 -1.04657 -1.04677 -1.04695 -1.04714 -1.04731 -1.04748 -1.04764 
247 -0.848303 -0.848357 -0.848412 -0.848469 -0.848527 -0.848587 -0.848647 -0.848709 -0.848771 -0.848835 
248 -0.850793 -0.850776 -0.85076 -0.850744 -0.850728 -0.850711 -0.850695 -0.850678 -0.850662 -0.850645 
249 -0.602482 -0.602726 -0.602971 -0.603217 -0.603462 -0.603707 -0.60395 -0.60419 -0.604427 -0.604659 
250 -0.813335 -0.813312 -0.813286 -0.813257 -0.813227 -0.813197 -0.813167 -0.813138 -0.813112 -0.813089 
251 -0.767021 -0.767026 -0.767029 -0.76703 -0.767029 -0.767028 -0.767027 -0.767027 -0.76703 -0.767034 
252 -0.73486 -0.734968 -0.735077 -0.735185 -0.735292 -0.735397 -0.735501 -0.735602 -0.735701 -0.735796 
253 -0.850793 -0.850776 -0.85076 -0.850744 -0.850728 -0.850711 -0.850695 -0.850678 -0.850662 -0.850645 
254 -0.881808 -0.881774 -0.88174 -0.881706 -0.881673 -0.881641 -0.88161 -0.881581 -0.881553 -0.881528 
255 -0.850873 -0.850858 -0.850843 -0.850828 -0.850813 -0.850797 -0.850781 -0.850766 -0.85075 -0.850733 
256 -0.856592 -0.856509 -0.856427 -0.856344 -0.856263 -0.856181 -0.856101 -0.856021 -0.855941 -0.855863 
257 -1.04384 -1.04391 -1.04398 -1.04405 -1.04412 -1.04418 -1.04425 -1.0443 -1.04435 -1.0444 
258 -0.825763 -0.825736 -0.825707 -0.825677 -0.825646 -0.825614 -0.825581 -0.825548 -0.825516 -0.825483 
259 -0.870562 -0.870521 -0.870481 -0.870441 -0.870402 -0.870363 -0.870325 -0.870288 -0.870251 -0.870215 
260 -0.624016 -0.624145 -0.624276 -0.62441 -0.624544 -0.62468 -0.624816 -0.624952 -0.625088 -0.625223 
261 -0.991568 -0.991647 -0.991726 -0.991804 -0.99188 -0.991955 -0.992026 -0.992095 -0.99216 -0.992222 
262 -1.02406 -1.02413 -1.02421 -1.02428 -1.02435 -1.02441 -1.02448 -1.02454 -1.02459 -1.02465 
263 -0.85083 -0.850813 -0.850795 -0.850778 -0.850761 -0.850744 -0.850727 -0.850709 -0.850692 -0.850674 
264 -0.838456 -0.838425 -0.83839 -0.838352 -0.838309 -0.838261 -0.83821 -0.838154 -0.838093 -0.838027 
265 -0.707483 -0.707564 -0.707645 -0.707726 -0.707806 -0.707887 -0.707967 -0.708047 -0.708125 -0.708203 
266 -0.667296 -0.667402 -0.667512 -0.667623 -0.667736 -0.66785 -0.667965 -0.66808 -0.668195 -0.668309 
267 -0.908373 -0.908366 -0.908359 -0.908351 -0.908343 -0.908335 -0.908326 -0.908317 -0.908309 -0.908302 
268 -0.844736 -0.844646 -0.844554 -0.844462 -0.84437 -0.844277 -0.844184 -0.844092 -0.844001 -0.84391 
269 -0.850793 -0.850777 -0.85076 -0.850744 -0.850728 -0.850711 -0.850695 -0.850679 -0.850662 -0.850645 
270 -1.00528 -1.00533 -1.00537 -1.00542 -1.00546 -1.0055 -1.00554 -1.00558 -1.00561 -1.00564 
271 -0.964553 -0.964604 -0.964654 -0.964703 -0.96475 -0.964796 -0.96484 -0.964881 -0.964921 -0.964957 
272 -0.689401 -0.689428 -0.689452 -0.689473 -0.68949 -0.689505 -0.689517 -0.689527 -0.689536 -0.689542 
273 -0.772998 -0.772992 -0.772978 -0.772956 -0.772927 -0.772892 -0.772852 -0.772808 -0.772761 -0.772713 
274 -0.731293 -0.731341 -0.731388 -0.731434 -0.731479 -0.731523 -0.731566 -0.731609 -0.731651 -0.731692 
275 -0.850139 -0.850111 -0.850084 -0.850057 -0.850029 -0.850002 -0.849975 -0.849948 -0.84992 -0.849893 
276 -0.976726 -0.976761 -0.976795 -0.976827 -0.976858 -0.976887 -0.976913 -0.976938 -0.97696 -0.976981 
277 -0.850793 -0.850776 -0.85076 -0.850744 -0.850728 -0.850711 -0.850695 -0.850678 -0.850662 -0.850645 
278 -0.712776 -0.712801 -0.712827 -0.712853 -0.712881 -0.71291 -0.71294 -0.712972 -0.713005 -0.713039 
279 -0.762656 -0.762652 -0.762644 -0.762633 -0.76262 -0.762604 -0.762588 -0.76257 -0.762552 -0.762535 
280 -0.934986 -0.93501 -0.935033 -0.935058 -0.935082 -0.935107 -0.935131 -0.935156 -0.93518 -0.935204 
281 -0.824743 -0.824755 -0.824758 -0.824752 -0.824736 -0.82471 -0.824675 -0.82463 -0.824577 -0.824515 
282 -0.93912 -0.93912 -0.93912 -0.939119 -0.939117 -0.939115 -0.939112 -0.939109 -0.939106 -0.939103 
283 -0.894373 -0.894347 -0.894321 -0.894293 -0.894266 -0.894238 -0.894211 -0.894184 -0.894157 -0.894131 
284 -0.800737 -0.800729 -0.80071 -0.800682 -0.800645 -0.800598 -0.800543 -0.80048 -0.800409 -0.800331 
285 -0.745215 -0.745302 -0.745375 -0.745433 -0.745476 -0.745505 -0.745519 -0.745519 -0.745506 -0.745482 
286 -0.850793 -0.850776 -0.85076 -0.850744 -0.850728 -0.850711 -0.850695 -0.850678 -0.850662 -0.850645 
287 -0.776386 -0.776486 -0.776582 -0.776674 -0.776762 -0.776844 -0.776921 -0.776991 -0.777055 -0.777113 