VARIABLES = "Cell" "Mode 0" "Mode 1" "Mode 2" "Mode 3" "Mode 4" "Mode 5" "Mode 6" "Mode 7" "Mode 8" "Mode 9" 
ZONE T = Iteration263
0 -0.850154 -0.850144 -0.850135 -0.850128 -0.850121 -0.850116 -0.850111 -0.850108 -0.850106 -0.850105 
1 -0.850154 -0.850144 -0.850135 -0.850128 -0.850121 -0.850116 -0.850111 -0.850108 -0.850106 -0.850105 
2 -0.850154 -0.850144 -0.850135 -0.850128 -0.850121 -0.850116 -0.850111 -0.850108 -0.850106 -0.850105 
3 -0.850154 -0.850144 -0.850135 -0.850128 -0.850121 -0.850116 -0.850111 -0.850108 -0.850106 -0.850105 
4 -0.850154 -0.850144 -0.850135 -0.850128 -0.850121 -0.850116 -0.850111 -0.850108 -0.850106 -0.850105 
5 -0.850154 -0.850144 -0.850135 -0.850128 -0.850121 -0.850116 -0.850111 -0.850108 -0.850106 -0.850105 
6 -0.850154 -0.850144 -0.850135 -0.850128 -0.850121 -0.850116 -0.850111 -0.850108 -0.850106 -0.850105 
7 -0.850154 -0.850144 -0.850135 -0.850128 -0.850121 -0.850116 -0.850111 -0.850108 -0.850106 -0.850105 
8 -0.850154 -0.850144 -0.850135 -0.850128 -0.850121 -0.850116 -0.850111 -0.850108 -0.850106 -0.850105 
9 -0.850154 -0.850144 -0.850135 -0.850128 -0.850121 -0.850116 -0.850111 -0.850108 -0.850106 -0.850105 
10 -0.850154 -0.850144 -0.850135 -0.850128 -0.850121 -0.850116 -0.850111 -0.850108 -0.850106 -0.850105 
11 -0.850154 -0.850144 -0.850135 -0.850128 -0.850121 -0.850116 -0.850111 -0.850108 -0.850106 -0.850105 
12 -0.850154 -0.850144 -0.850135 -0.850128 -0.850121 -0.850116 -0.850111 -0.850108 -0.850106 -0.850105 
13 -0.850154 -0.850144 -0.850135 -0.850128 -0.850121 -0.850116 -0.850111 -0.850108 -0.850106 -0.850105 
14 -0.850154 -0.850144 -0.850135 -0.850128 -0.850121 -0.850116 -0.850111 -0.850108 -0.850106 -0.850105 
15 -0.850154 -0.850144 -0.850135 -0.850128 -0.850121 -0.850116 -0.850111 -0.850108 -0.850106 -0.850105 
16 -0.850154 -0.850144 -0.850135 -0.850128 -0.850121 -0.850116 -0.850111 -0.850108 -0.850106 -0.850105 
17 -0.850154 -0.850144 -0.850135 -0.850128 -0.850121 -0.850116 -0.850111 -0.850108 -0.850106 -0.850105 
18 -0.850154 -0.850144 -0.850135 -0.850128 -0.850121 -0.850116 -0.850111 -0.850108 -0.850106 -0.850105 
19 -0.850154 -0.850144 -0.850135 -0.850128 -0.850121 -0.850116 -0.850111 -0.850108 -0.850106 -0.850105 
20 -0.850154 -0.850144 -0.850135 -0.850128 -0.850121 -0.850116 -0.850111 -0.850108 -0.850106 -0.850105 
21 -0.850154 -0.850144 -0.850135 -0.850128 -0.850121 -0.850116 -0.850111 -0.850108 -0.850106 -0.850105 
22 -0.850154 -0.850144 -0.850135 -0.850128 -0.850121 -0.850116 -0.850111 -0.850108 -0.850106 -0.850105 
23 -0.850154 -0.850144 -0.850135 -0.850128 -0.850121 -0.850116 -0.850111 -0.850108 -0.850106 -0.850105 
24 -0.850154 -0.850144 -0.850135 -0.850128 -0.850121 -0.850116 -0.850111 -0.850108 -0.850106 -0.850105 
25 -0.850154 -0.850144 -0.850135 -0.850128 -0.850121 -0.850116 -0.850111 -0.850108 -0.850106 -0.850105 
26 -0.850154 -0.850144 -0.850135 -0.850128 -0.850121 -0.850116 -0.850111 -0.850108 -0.850106 -0.850105 
27 -0.850154 -0.850144 -0.850135 -0.850128 -0.850121 -0.850116 -0.850111 -0.850108 -0.850106 -0.850105 
28 -0.850154 -0.850144 -0.850135 -0.850128 -0.850121 -0.850116 -0.850111 -0.850108 -0.850106 -0.850105 
29 -0.850154 -0.850144 -0.850135 -0.850128 -0.850121 -0.850116 -0.850111 -0.850108 -0.850106 -0.850105 
30 -0.850154 -0.850144 -0.850135 -0.850128 -0.850121 -0.850116 -0.850111 -0.850108 -0.850106 -0.850105 
31 -0.850154 -0.850144 -0.850135 -0.850128 -0.850121 -0.850116 -0.850111 -0.850108 -0.850106 -0.850105 
32 -0.850154 -0.850144 -0.850135 -0.850128 -0.850121 -0.850116 -0.850111 -0.850108 -0.850106 -0.850105 
33 -0.850154 -0.850144 -0.850135 -0.850128 -0.850121 -0.850116 -0.850111 -0.850108 -0.850106 -0.850105 
34 -0.850154 -0.850144 -0.850135 -0.850128 -0.850121 -0.850116 -0.850111 -0.850108 -0.850106 -0.850105 
35 -0.850154 -0.850144 -0.850135 -0.850128 -0.850121 -0.850116 -0.850111 -0.850108 -0.850106 -0.850105 
36 -0.850154 -0.850144 -0.850135 -0.850128 -0.850121 -0.850116 -0.850111 -0.850108 -0.850106 -0.850105 
37 -0.850154 -0.850144 -0.850135 -0.850128 -0.850121 -0.850116 -0.850111 -0.850108 -0.850106 -0.850105 
38 -0.850154 -0.850144 -0.850135 -0.850128 -0.850121 -0.850116 -0.850111 -0.850108 -0.850106 -0.850105 
39 -0.850154 -0.850144 -0.850135 -0.850128 -0.850121 -0.850116 -0.850111 -0.850108 -0.850106 -0.850105 
40 -0.850154 -0.850144 -0.850135 -0.850128 -0.850121 -0.850116 -0.850111 -0.850108 -0.850106 -0.850105 
41 -0.850154 -0.850144 -0.850135 -0.850128 -0.850121 -0.850116 -0.850111 -0.850108 -0.850106 -0.850105 
42 -0.850154 -0.850144 -0.850135 -0.850128 -0.850121 -0.850116 -0.850111 -0.850108 -0.850106 -0.850105 
43 -0.850154 -0.850144 -0.850135 -0.850128 -0.850121 -0.850116 -0.850111 -0.850108 -0.850106 -0.850105 
44 -0.850154 -0.850144 -0.850135 -0.850128 -0.850121 -0.850116 -0.850111 -0.850108 -0.850106 -0.850105 
45 -0.850154 -0.850144 -0.850135 -0.850128 -0.850121 -0.850116 -0.850111 -0.850108 -0.850106 -0.850105 
46 -0.850154 -0.850144 -0.850135 -0.850128 -0.850121 -0.850116 -0.850111 -0.850108 -0.850106 -0.850105 
47 -0.850154 -0.850144 -0.850135 -0.850128 -0.850121 -0.850116 -0.850111 -0.850108 -0.850106 -0.850105 
48 -0.850154 -0.850144 -0.850135 -0.850128 -0.850121 -0.850116 -0.850111 -0.850108 -0.850106 -0.850105 
49 -0.850154 -0.850144 -0.850135 -0.850128 -0.850121 -0.850116 -0.850111 -0.850108 -0.850106 -0.850105 
50 -0.850154 -0.850144 -0.850135 -0.850128 -0.850121 -0.850116 -0.850111 -0.850108 -0.850106 -0.850105 
51 -0.850154 -0.850144 -0.850135 -0.850128 -0.850121 -0.850116 -0.850111 -0.850108 -0.850106 -0.850105 
52 -0.850154 -0.850144 -0.850135 -0.850128 -0.850121 -0.850116 -0.850111 -0.850108 -0.850106 -0.850105 
53 -0.850154 -0.850144 -0.850135 -0.850128 -0.850121 -0.850116 -0.850111 -0.850108 -0.850106 -0.850105 
54 -0.850154 -0.850144 -0.850135 -0.850128 -0.850121 -0.850116 -0.850111 -0.850108 -0.850106 -0.850105 
55 -0.850154 -0.850144 -0.850135 -0.850128 -0.850121 -0.850116 -0.850111 -0.850108 -0.850106 -0.850105 
56 -0.850154 -0.850144 -0.850135 -0.850128 -0.850121 -0.850116 -0.850111 -0.850108 -0.850106 -0.850105 
57 -0.850154 -0.850144 -0.850135 -0.850128 -0.850121 -0.850116 -0.850111 -0.850108 -0.850106 -0.850105 
58 -0.850154 -0.850144 -0.850135 -0.850128 -0.850121 -0.850116 -0.850111 -0.850108 -0.850106 -0.850105 
59 -0.850154 -0.850144 -0.850135 -0.850128 -0.850121 -0.850116 -0.850111 -0.850108 -0.850106 -0.850105 
60 -0.850154 -0.850144 -0.850135 -0.850128 -0.850121 -0.850116 -0.850111 -0.850108 -0.850106 -0.850105 
61 -0.850154 -0.850144 -0.850135 -0.850128 -0.850121 -0.850116 -0.850111 -0.850108 -0.850106 -0.850105 
62 -0.850154 -0.850144 -0.850135 -0.850128 -0.850121 -0.850116 -0.850111 -0.850108 -0.850106 -0.850105 
63 -0.850154 -0.850144 -0.850135 -0.850128 -0.850121 -0.850116 -0.850111 -0.850108 -0.850106 -0.850105 
64 -0.850154 -0.850144 -0.850135 -0.850128 -0.850121 -0.850116 -0.850111 -0.850108 -0.850106 -0.850105 
65 -0.850154 -0.850144 -0.850135 -0.850128 -0.850121 -0.850116 -0.850111 -0.850108 -0.850106 -0.850105 
66 -0.850154 -0.850144 -0.850135 -0.850128 -0.850121 -0.850116 -0.850111 -0.850108 -0.850106 -0.850105 
67 -0.850154 -0.850144 -0.850135 -0.850128 -0.850121 -0.850116 -0.850111 -0.850108 -0.850106 -0.850105 
68 -0.850154 -0.850144 -0.850135 -0.850128 -0.850121 -0.850116 -0.850111 -0.850108 -0.850106 -0.850105 
69 -0.850154 -0.850144 -0.850135 -0.850128 -0.850121 -0.850116 -0.850111 -0.850108 -0.850106 -0.850105 
70 -0.850154 -0.850144 -0.850135 -0.850128 -0.850121 -0.850116 -0.850111 -0.850108 -0.850106 -0.850105 
71 -0.850154 -0.850144 -0.850135 -0.850128 -0.850121 -0.850116 -0.850111 -0.850108 -0.850106 -0.850105 
72 -0.850154 -0.850144 -0.850135 -0.850128 -0.850121 -0.850116 -0.850111 -0.850108 -0.850106 -0.850105 
73 -0.850154 -0.850144 -0.850135 -0.850128 -0.850121 -0.850116 -0.850111 -0.850108 -0.850106 -0.850105 
74 -0.850154 -0.850144 -0.850135 -0.850128 -0.850121 -0.850116 -0.850111 -0.850108 -0.850106 -0.850105 
75 -0.850154 -0.850144 -0.850135 -0.850128 -0.850121 -0.850116 -0.850111 -0.850108 -0.850106 -0.850105 
76 -0.850154 -0.850144 -0.850135 -0.850128 -0.850121 -0.850116 -0.850111 -0.850108 -0.850106 -0.850105 
77 -0.850154 -0.850144 -0.850135 -0.850128 -0.850121 -0.850116 -0.850111 -0.850108 -0.850106 -0.850105 
78 -0.850154 -0.850144 -0.850135 -0.850128 -0.850121 -0.850116 -0.850111 -0.850108 -0.850106 -0.850105 
79 -0.850154 -0.850144 -0.850135 -0.850128 -0.850121 -0.850116 -0.850111 -0.850108 -0.850106 -0.850105 
80 -0.850154 -0.850144 -0.850135 -0.850128 -0.850121 -0.850116 -0.850111 -0.850108 -0.850106 -0.850105 
81 -0.850153 -0.850144 -0.850135 -0.850127 -0.850121 -0.850115 -0.850111 -0.850108 -0.850106 -0.850105 
82 -0.850153 -0.850144 -0.850135 -0.850127 -0.850121 -0.850115 -0.850111 -0.850108 -0.850106 -0.850105 
83 -0.850154 -0.850144 -0.850135 -0.850128 -0.850121 -0.850116 -0.850111 -0.850108 -0.850106 -0.850105 
84 -0.850154 -0.850144 -0.850135 -0.850128 -0.850121 -0.850116 -0.850111 -0.850108 -0.850106 -0.850105 
85 -0.850153 -0.850143 -0.850135 -0.850127 -0.850121 -0.850115 -0.850111 -0.850108 -0.850106 -0.850105 
86 -0.850154 -0.850144 -0.850135 -0.850128 -0.850121 -0.850116 -0.850111 -0.850108 -0.850106 -0.850105 
87 -0.850154 -0.850144 -0.850135 -0.850128 -0.850121 -0.850116 -0.850111 -0.850108 -0.850106 -0.850105 
88 -0.850154 -0.850144 -0.850135 -0.850128 -0.850121 -0.850116 -0.850111 -0.850108 -0.850106 -0.850105 
89 -0.850141 -0.850131 -0.850122 -0.850114 -0.850107 -0.850102 -0.850097 -0.850094 -0.850092 -0.850091 
90 -0.850154 -0.850144 -0.850135 -0.850128 -0.850121 -0.850116 -0.850111 -0.850108 -0.850106 -0.850105 
91 -0.850154 -0.850145 -0.850136 -0.850129 -0.850123 -0.850118 -0.850114 -0.850111 -0.850109 -0.850108 
92 -0.850146 -0.850136 -0.850127 -0.850119 -0.850113 -0.850107 -0.850103 -0.8501 -0.850098 -0.850097 
93 -0.850131 -0.850121 -0.850112 -0.850105 -0.850098 -0.850093 -0.850089 -0.850086 -0.850084 -0.850084 
94 -0.850154 -0.850144 -0.850135 -0.850128 -0.850121 -0.850116 -0.850111 -0.850108 -0.850106 -0.850105 
95 -0.850103 -0.850095 -0.850087 -0.850081 -0.850075 -0.850071 -0.850068 -0.850066 -0.850065 -0.850066 
96 -0.85015 -0.850141 -0.850133 -0.850126 -0.85012 -0.850115 -0.850111 -0.850109 -0.850107 -0.850107 
97 -0.850128 -0.850119 -0.85011 -0.850102 -0.850096 -0.850091 -0.850086 -0.850083 -0.850082 -0.850081 
98 -0.850154 -0.850144 -0.850135 -0.850128 -0.850121 -0.850116 -0.850111 -0.850108 -0.850106 -0.850105 
99 -0.850376 -0.850363 -0.850351 -0.850339 -0.850329 -0.850319 -0.850311 -0.850303 -0.850297 -0.850292 
100 -0.85001 -0.849998 -0.849988 -0.849978 -0.84997 -0.849963 -0.849958 -0.849954 -0.849951 -0.84995 
101 -0.850159 -0.850149 -0.85014 -0.850132 -0.850126 -0.85012 -0.850115 -0.850112 -0.85011 -0.850109 
102 -0.850343 -0.850327 -0.850313 -0.8503 -0.850288 -0.850277 -0.850267 -0.850258 -0.85025 -0.850244 
103 -0.850143 -0.850133 -0.850125 -0.850117 -0.850111 -0.850106 -0.850102 -0.850099 -0.850097 -0.850096 
104 -0.850202 -0.850185 -0.850169 -0.850154 -0.85014 -0.850128 -0.850117 -0.850107 -0.850099 -0.850092 
105 -0.850098 -0.850093 -0.85009 -0.850087 -0.850086 -0.850085 -0.850086 -0.850088 -0.850091 -0.850095 
106 -0.850144 -0.850134 -0.850126 -0.850118 -0.850112 -0.850107 -0.850102 -0.850099 -0.850098 -0.850097 
107 -0.850154 -0.850144 -0.850135 -0.850128 -0.850121 -0.850116 -0.850111 -0.850108 -0.850106 -0.850105 
108 -0.850237 -0.850225 -0.850213 -0.850203 -0.850194 -0.850185 -0.850178 -0.850173 -0.850168 -0.850165 
109 -0.85028 -0.850272 -0.850265 -0.850259 -0.850254 -0.850249 -0.850246 -0.850243 -0.850242 -0.850241 
110 -0.850455 -0.850471 -0.850486 -0.850503 -0.850519 -0.850536 -0.850554 -0.850572 -0.85059 -0.850609 
111 -0.851128 -0.8511 -0.851072 -0.851045 -0.851019 -0.850993 -0.850969 -0.850945 -0.850922 -0.8509 
112 -0.850135 -0.850125 -0.850116 -0.850109 -0.850102 -0.850096 -0.850092 -0.850088 -0.850086 -0.850085 
113 -0.850154 -0.850144 -0.850135 -0.850128 -0.850121 -0.850116 -0.850111 -0.850108 -0.850106 -0.850105 
114 -0.850318 -0.850313 -0.850307 -0.850303 -0.8503 -0.850298 -0.850297 -0.850297 -0.850297 -0.850299 
115 -0.848452 -0.848444 -0.848437 -0.848433 -0.848431 -0.848431 -0.848433 -0.848437 -0.848443 -0.848452 
116 -0.850467 -0.850451 -0.850437 -0.850423 -0.85041 -0.850399 -0.850388 -0.850379 -0.850371 -0.850363 
117 -0.851433 -0.851436 -0.851438 -0.85144 -0.851442 -0.851444 -0.851446 -0.851448 -0.851449 -0.85145 
118 -0.849041 -0.849066 -0.849092 -0.84912 -0.849149 -0.849179 -0.849211 -0.849244 -0.849278 -0.849314 
119 -0.849551 -0.849576 -0.849602 -0.849628 -0.849655 -0.849683 -0.849712 -0.849742 -0.849772 -0.849803 
120 -0.851371 -0.851396 -0.851422 -0.851448 -0.851475 -0.851502 -0.851531 -0.851559 -0.851589 -0.851619 
121 -0.850076 -0.850002 -0.84993 -0.849859 -0.849789 -0.849721 -0.849654 -0.849589 -0.849525 -0.849463 
122 -0.848136 -0.848181 -0.848228 -0.848277 -0.848327 -0.848379 -0.848433 -0.848489 -0.848547 -0.848606 
123 -0.849719 -0.849749 -0.849779 -0.849809 -0.84984 -0.849871 -0.849902 -0.849934 -0.849966 -0.849999 
124 -0.852447 -0.852411 -0.852377 -0.852342 -0.852308 -0.852275 -0.852242 -0.852209 -0.852177 -0.852146 
125 -0.850428 -0.850376 -0.850325 -0.850275 -0.850227 -0.85018 -0.850136 -0.850093 -0.850051 -0.850012 
126 -0.850154 -0.850144 -0.850135 -0.850128 -0.850121 -0.850116 -0.850111 -0.850108 -0.850106 -0.850105 
127 -0.847053 -0.84705 -0.847049 -0.847051 -0.847055 -0.847062 -0.847071 -0.847083 -0.847098 -0.847115 
128 -0.853505 -0.853457 -0.85341 -0.853363 -0.853317 -0.853271 -0.853226 -0.853181 -0.853137 -0.853094 
129 -0.856455 -0.856488 -0.85652 -0.85655 -0.85658 -0.856608 -0.856635 -0.856661 -0.856686 -0.856709 
130 -0.854362 -0.854366 -0.85437 -0.854373 -0.854377 -0.85438 -0.854383 -0.854386 -0.854389 -0.854392 
131 -0.846783 -0.84675 -0.846719 -0.846688 -0.84666 -0.846632 -0.846607 -0.846583 -0.846561 -0.84654 
132 -0.844127 -0.844095 -0.844065 -0.844038 -0.844014 -0.843992 -0.843972 -0.843956 -0.843942 -0.84393 
133 -0.850957 -0.850958 -0.85096 -0.850963 -0.850967 -0.850972 -0.850978 -0.850984 -0.850992 -0.851001 
134 -0.847584 -0.847534 -0.847485 -0.84744 -0.847397 -0.847357 -0.847319 -0.847284 -0.847252 -0.847223 
135 -0.84428 -0.844278 -0.844279 -0.844282 -0.844289 -0.844299 -0.844311 -0.844327 -0.844346 -0.844368 
136 -0.850151 -0.850141 -0.850133 -0.850125 -0.850119 -0.850113 -0.850109 -0.850106 -0.850104 -0.850103 
137 -0.850314 -0.850307 -0.850302 -0.850297 -0.850292 -0.850289 -0.850287 -0.850286 -0.850285 -0.850286 
138 -0.853082 -0.853025 -0.852968 -0.85291 -0.852851 -0.852793 -0.852735 -0.852677 -0.852619 -0.852562 
139 -0.845391 -0.84538 -0.845372 -0.845365 -0.845362 -0.84536 -0.845361 -0.845365 -0.84537 -0.845378 
140 -0.848845 -0.84886 -0.848877 -0.848896 -0.848916 -0.848938 -0.848961 -0.848986 -0.849013 -0.849041 
141 -0.856558 -0.856632 -0.856704 -0.856776 -0.856847 -0.856918 -0.856987 -0.857056 -0.857124 -0.857191 
142 -0.843296 -0.843212 -0.843129 -0.843049 -0.842971 -0.842895 -0.842822 -0.842751 -0.842682 -0.842616 
143 -0.854919 -0.854908 -0.854899 -0.85489 -0.854883 -0.854877 -0.854872 -0.854869 -0.854867 -0.854866 
144 -0.851282 -0.851228 -0.851175 -0.85112 -0.851066 -0.851011 -0.850955 -0.8509 -0.850844 -0.850787 
145 -0.844926 -0.84491 -0.844895 -0.844881 -0.844868 -0.844855 -0.844843 -0.844833 -0.844822 -0.844813 
146 -0.852751 -0.852677 -0.852603 -0.85253 -0.852457 -0.852386 -0.852315 -0.852246 -0.852178 -0.852112 
147 -0.85671 -0.856751 -0.856792 -0.856834 -0.856878 -0.856923 -0.856969 -0.857016 -0.857065 -0.857114 
148 -0.843807 -0.843727 -0.843649 -0.843571 -0.843494 -0.843419 -0.843345 -0.843273 -0.843202 -0.843132 
149 -0.856657 -0.856662 -0.856667 -0.856671 -0.856675 -0.856678 -0.856682 -0.856685 -0.856688 -0.856691 
150 -0.852554 -0.852576 -0.852602 -0.852634 -0.852669 -0.85271 -0.852754 -0.852804 -0.852858 -0.852917 
151 -0.844854 -0.844793 -0.844735 -0.84468 -0.844628 -0.844578 -0.844531 -0.844487 -0.844446 -0.844408 
152 -0.846117 -0.84613 -0.846144 -0.846161 -0.846181 -0.846203 -0.846228 -0.846255 -0.846285 -0.846318 
153 -0.849463 -0.849327 -0.849191 -0.849055 -0.84892 -0.848785 -0.848651 -0.848518 -0.848386 -0.848255 
154 -0.846896 -0.846818 -0.846741 -0.846667 -0.846595 -0.846526 -0.846459 -0.846395 -0.846334 -0.846275 
155 -0.844526 -0.844538 -0.84455 -0.844564 -0.84458 -0.844596 -0.844613 -0.844632 -0.844651 -0.844672 
156 -0.858331 -0.858301 -0.858271 -0.85824 -0.85821 -0.858178 -0.858147 -0.858114 -0.858081 -0.858048 
157 -0.857634 -0.857575 -0.857516 -0.857456 -0.857396 -0.857336 -0.857276 -0.857216 -0.857156 -0.857097 
158 -0.845321 -0.845347 -0.845373 -0.845399 -0.845424 -0.845449 -0.845473 -0.845497 -0.845519 -0.845541 
159 -0.849975 -0.849986 -0.849997 -0.85001 -0.850023 -0.850037 -0.850052 -0.850067 -0.850084 -0.850101 
160 -0.851462 -0.851457 -0.851457 -0.851461 -0.851469 -0.851482 -0.851501 -0.851523 -0.851551 -0.851584 
161 -0.836112 -0.836076 -0.836043 -0.836012 -0.835984 -0.835958 -0.835935 -0.835914 -0.835896 -0.835881 
162 -0.846464 -0.846373 -0.846281 -0.846186 -0.846089 -0.845992 -0.845892 -0.845792 -0.845691 -0.845589 
163 -0.84187 -0.841923 -0.841977 -0.842031 -0.842086 -0.842141 -0.842196 -0.842251 -0.842306 -0.842361 
164 -0.860154 -0.860092 -0.86003 -0.859966 -0.859902 -0.859837 -0.859771 -0.859705 -0.859639 -0.859573 
165 -0.857477 -0.857449 -0.857423 -0.8574 -0.85738 -0.857362 -0.857346 -0.857332 -0.857321 -0.857311 
166 -0.835652 -0.835665 -0.835681 -0.835698 -0.835717 -0.835738 -0.835761 -0.835786 -0.835812 -0.835841 
167 -0.855022 -0.854946 -0.854869 -0.854789 -0.854708 -0.854625 -0.854541 -0.854457 -0.854373 -0.854288 
168 -0.83888 -0.838823 -0.838766 -0.838709 -0.838652 -0.838595 -0.838539 -0.838483 -0.838427 -0.838373 
169 -0.85502 -0.85499 -0.854963 -0.854938 -0.854916 -0.854896 -0.854879 -0.854865 -0.854853 -0.854845 
170 -0.864819 -0.864762 -0.864707 -0.864652 -0.864599 -0.864548 -0.864499 -0.864452 -0.864408 -0.864366 
171 -0.863723 -0.863717 -0.863714 -0.863715 -0.863719 -0.863726 -0.863736 -0.863748 -0.863762 -0.863778 
172 -0.841446 -0.841427 -0.841412 -0.841399 -0.841388 -0.84138 -0.841374 -0.84137 -0.841368 -0.841369 
173 -0.850154 -0.850144 -0.850135 -0.850128 -0.850121 -0.850116 -0.850111 -0.850108 -0.850106 -0.850105 
174 -0.86359 -0.863567 -0.863539 -0.863505 -0.863467 -0.863423 -0.863374 -0.863321 -0.863262 -0.8632 
175 -0.872885 -0.872845 -0.872802 -0.872755 -0.872706 -0.872653 -0.872599 -0.872543 -0.872487 -0.87243 
176 -0.845319 -0.845303 -0.845285 -0.845266 -0.845244 -0.845221 -0.845195 -0.845168 -0.845139 -0.845107 
177 -0.83443 -0.834379 -0.83433 -0.834283 -0.834238 -0.834196 -0.834156 -0.834119 -0.834086 -0.834054 
178 -0.871691 -0.871655 -0.871612 -0.871562 -0.871506 -0.871444 -0.871377 -0.871304 -0.871228 -0.871148 
179 -0.850154 -0.850144 -0.850135 -0.850128 -0.850121 -0.850116 -0.850111 -0.850108 -0.850106 -0.850105 
180 -0.850995 -0.851025 -0.851048 -0.851064 -0.851073 -0.851075 -0.851069 -0.851056 -0.851034 -0.851005 
181 -0.871684 -0.871684 -0.871686 -0.871691 -0.871698 -0.871708 -0.87172 -0.871735 -0.871752 -0.871771 
182 -0.828997 -0.82896 -0.82892 -0.828878 -0.828835 -0.828789 -0.828741 -0.828693 -0.828642 -0.828591 
183 -0.838451 -0.838466 -0.838475 -0.83848 -0.83848 -0.838475 -0.838465 -0.83845 -0.83843 -0.838405 
184 -0.834691 -0.834633 -0.83458 -0.83453 -0.834484 -0.834442 -0.834403 -0.834368 -0.834336 -0.834306 
185 -0.876639 -0.876603 -0.876565 -0.876525 -0.876484 -0.876443 -0.876403 -0.876364 -0.876326 -0.876291 
186 -0.888878 -0.888894 -0.888904 -0.888908 -0.888907 -0.888899 -0.888886 -0.888866 -0.888839 -0.888807 
187 -0.833501 -0.833411 -0.833322 -0.833234 -0.833147 -0.833063 -0.832981 -0.832903 -0.832829 -0.832759 
188 -0.862861 -0.862947 -0.86303 -0.863107 -0.86318 -0.863246 -0.863306 -0.863359 -0.863405 -0.863442 
189 -0.885772 -0.885863 -0.88595 -0.886031 -0.886106 -0.886175 -0.886235 -0.886288 -0.886332 -0.886366 
190 -0.848291 -0.848246 -0.848202 -0.848157 -0.848113 -0.848068 -0.848024 -0.84798 -0.847936 -0.847893 
191 -0.850154 -0.850144 -0.850135 -0.850128 -0.850121 -0.850116 -0.850111 -0.850108 -0.850106 -0.850105 
192 -0.810014 -0.810038 -0.810057 -0.810073 -0.810085 -0.810093 -0.810097 -0.810097 -0.810092 -0.810083 
193 -0.850154 -0.850144 -0.850135 -0.850128 -0.850121 -0.850116 -0.850111 -0.850108 -0.850106 -0.850105 
194 -0.856394 -0.856393 -0.856396 -0.856402 -0.856413 -0.856426 -0.856444 -0.856464 -0.856489 -0.856516 
195 -0.855909 -0.856014 -0.856116 -0.856215 -0.856308 -0.856395 -0.856476 -0.856548 -0.85661 -0.856662 
196 -0.845354 -0.845398 -0.845443 -0.845489 -0.845536 -0.845584 -0.845633 -0.845683 -0.845733 -0.845783 
197 -0.847797 -0.847716 -0.847637 -0.847557 -0.847479 -0.847402 -0.847325 -0.84725 -0.847175 -0.847102 
198 -0.850154 -0.850144 -0.850135 -0.850128 -0.850121 -0.850116 -0.850111 -0.850108 -0.850106 -0.850105 
199 -0.797026 -0.79699 -0.796948 -0.796897 -0.79684 -0.796777 -0.796708 -0.796635 -0.796557 -0.796475 
200 -0.834014 -0.834093 -0.834171 -0.834246 -0.834317 -0.834384 -0.834446 -0.834501 -0.834549 -0.83459 
201 -0.905633 -0.905759 -0.905881 -0.905997 -0.906106 -0.906208 -0.906301 -0.906385 -0.906457 -0.906519 
202 -0.850154 -0.850144 -0.850135 -0.850128 -0.850121 -0.850116 -0.850111 -0.850108 -0.850106 -0.850105 
203 -0.86728 -0.867303 -0.86733 -0.867362 -0.867399 -0.86744 -0.867485 -0.867535 -0.867588 -0.867645 
204 -0.849722 -0.849732 -0.849744 -0.849758 -0.849772 -0.849788 -0.849806 -0.849824 -0.849844 -0.849866 
205 -0.895677 -0.895714 -0.895747 -0.895775 -0.895797 -0.895814 -0.895824 -0.895828 -0.895826 -0.895817 
206 -0.850154 -0.850144 -0.850135 -0.850128 -0.850121 -0.850116 -0.850111 -0.850108 -0.850106 -0.850105 
207 -0.776032 -0.776044 -0.776052 -0.776056 -0.776056 -0.776052 -0.776044 -0.776031 -0.776014 -0.775993 
208 -0.863334 -0.863448 -0.863556 -0.863656 -0.863747 -0.863828 -0.863897 -0.863954 -0.863996 -0.864023 
209 -0.889992 -0.890009 -0.890024 -0.890037 -0.890047 -0.890055 -0.89006 -0.890063 -0.890063 -0.89006 
210 -0.919638 -0.919756 -0.919867 -0.91997 -0.920065 -0.920149 -0.920222 -0.920282 -0.920329 -0.920361 
211 -0.850154 -0.850144 -0.850135 -0.850128 -0.850121 -0.850116 -0.850111 -0.850108 -0.850106 -0.850105 
212 -0.850154 -0.850144 -0.850135 -0.850128 -0.850121 -0.850116 -0.850111 -0.850108 -0.850106 -0.850105 
213 -0.841115 -0.841129 -0.841147 -0.841169 -0.841194 -0.841223 -0.841255 -0.841291 -0.841329 -0.841371 
214 -0.763084 -0.763071 -0.763052 -0.763026 -0.762993 -0.762953 -0.762908 -0.762857 -0.762801 -0.76274 
215 -0.795903 -0.796 -0.796096 -0.796191 -0.796284 -0.796374 -0.79646 -0.796539 -0.796612 -0.796677 
216 -0.802999 -0.803118 -0.803238 -0.803357 -0.803476 -0.803591 -0.803703 -0.803809 -0.803908 -0.803998 
217 -0.849327 -0.849338 -0.849354 -0.849374 -0.849399 -0.849429 -0.849463 -0.849501 -0.849545 -0.849592 
218 -0.848619 -0.848745 -0.848866 -0.848981 -0.849088 -0.849184 -0.84927 -0.849342 -0.849399 -0.84944 
219 -0.85038 -0.850367 -0.850356 -0.850345 -0.850336 -0.850327 -0.85032 -0.850314 -0.850309 -0.850306 
220 -0.947975 -0.948081 -0.948186 -0.94829 -0.948392 -0.94849 -0.948585 -0.948674 -0.948758 -0.948834 
221 -0.789274 -0.789346 -0.789416 -0.789486 -0.789553 -0.789618 -0.789679 -0.789736 -0.789788 -0.789834 
222 -0.741523 -0.741629 -0.741728 -0.74182 -0.741902 -0.741974 -0.742033 -0.742079 -0.742109 -0.742123 
223 -0.902796 -0.902896 -0.902997 -0.903098 -0.903199 -0.903298 -0.903393 -0.903485 -0.903571 -0.903651 
224 -0.919663 -0.919776 -0.919888 -0.919997 -0.920103 -0.920204 -0.920301 -0.920391 -0.920475 -0.92055 
225 -0.831163 -0.83105 -0.830938 -0.830828 -0.83072 -0.830613 -0.830508 -0.830406 -0.830307 -0.830211 
226 -0.802034 -0.802043 -0.802042 -0.802032 -0.802011 -0.801981 -0.801941 -0.801893 -0.801835 -0.80177 
227 -0.891439 -0.891509 -0.891578 -0.891646 -0.891712 -0.891775 -0.891834 -0.891887 -0.891933 -0.891972 
228 -0.821829 -0.82177 -0.821706 -0.821638 -0.821565 -0.821488 -0.821408 -0.821325 -0.821239 -0.821151 
229 -0.850154 -0.850144 -0.850135 -0.850128 -0.850121 -0.850116 -0.850111 -0.850108 -0.850106 -0.850105 
230 -0.850154 -0.850144 -0.850135 -0.850128 -0.850121 -0.850116 -0.850111 -0.850108 -0.850106 -0.850105 
231 -0.850154 -0.850144 -0.850135 -0.850128 -0.850121 -0.850116 -0.850111 -0.850108 -0.850106 -0.850105 
232 -1.10115 -1.10129 -1.10143 -1.10156 -1.10168 -1.10178 -1.10187 -1.10194 -1.102 -1.10203 
233 -0.85015 -0.85014 -0.850132 -0.850124 -0.850117 -0.850112 -0.850107 -0.850104 -0.850102 -0.850101 
234 -0.982798 -0.982904 -0.983009 -0.983112 -0.983213 -0.983311 -0.983404 -0.983491 -0.983571 -0.983644 
235 -0.646689 -0.646707 -0.646729 -0.646756 -0.646787 -0.646822 -0.646859 -0.646899 -0.646939 -0.64698 
236 -0.909615 -0.909723 -0.90983 -0.909936 -0.910038 -0.910136 -0.91023 -0.910319 -0.910402 -0.910477 
237 -1.11524 -1.11536 -1.11547 -1.11558 -1.11568 -1.11577 -1.11585 -1.11592 -1.11597 -1.11601 
238 -0.850948 -0.850927 -0.850907 -0.850888 -0.85087 -0.850854 -0.850839 -0.850825 -0.850812 -0.8508 
239 -0.704084 -0.704087 -0.704099 -0.704119 -0.704148 -0.704186 -0.704231 -0.704283 -0.704341 -0.704404 
240 -0.762725 -0.762744 -0.762757 -0.762764 -0.762765 -0.762759 -0.762746 -0.762727 -0.762702 -0.76267 
241 -0.728201 -0.728243 -0.728282 -0.728319 -0.728352 -0.728383 -0.728409 -0.728432 -0.72845 -0.728463 
242 -0.850154 -0.850144 -0.850135 -0.850128 -0.850121 -0.850116 -0.850111 -0.850108 -0.850106 -0.850105 
243 -0.987869 -0.98796 -0.988051 -0.988141 -0.988228 -0.988313 -0.988393 -0.988469 -0.98854 -0.988603 
244 -1.12218 -1.12229 -1.1224 -1.1225 -1.1226 -1.12268 -1.12276 -1.12283 -1.12288 -1.12291 
245 -0.519703 -0.519649 -0.519594 -0.519539 -0.519483 -0.519428 -0.519373 -0.519318 -0.519265 -0.519211 
246 -1.0505 -1.05061 -1.05072 -1.05084 -1.05094 -1.05105 -1.05115 -1.05124 -1.05133 -1.0514 
247 -0.850751 -0.850805 -0.850857 -0.850908 -0.850958 -0.851006 -0.851052 -0.851097 -0.85114 -0.851182 
248 -0.850154 -0.850144 -0.850135 -0.850128 -0.850121 -0.850116 -0.850111 -0.850108 -0.850106 -0.850105 
249 -0.607735 -0.607736 -0.607734 -0.60773 -0.607724 -0.607714 -0.607701 -0.607685 -0.607664 -0.607639 
250 -0.814261 -0.814257 -0.814242 -0.814217 -0.81418 -0.814133 -0.814076 -0.814009 -0.813933 -0.813848 
251 -0.769231 -0.769255 -0.769266 -0.769263 -0.769248 -0.76922 -0.76918 -0.769128 -0.769065 -0.768991 
252 -0.737245 -0.737277 -0.737309 -0.737341 -0.737372 -0.737403 -0.737433 -0.737461 -0.737487 -0.73751 
253 -0.850154 -0.850144 -0.850135 -0.850128 -0.850121 -0.850116 -0.850111 -0.850108 -0.850106 -0.850105 
254 -0.88144 -0.881426 -0.88141 -0.881391 -0.881371 -0.881349 -0.881326 -0.881302 -0.881276 -0.88125 
255 -0.850227 -0.850216 -0.850206 -0.850198 -0.85019 -0.850183 -0.850177 -0.850173 -0.850169 -0.850167 
256 -0.854352 -0.854343 -0.854337 -0.854334 -0.854335 -0.854339 -0.854347 -0.854358 -0.854372 -0.85439 
257 -1.04499 -1.04505 -1.04511 -1.04517 -1.04524 -1.0453 -1.04537 -1.04543 -1.0455 -1.04556 
258 -0.824064 -0.823964 -0.823861 -0.823755 -0.823646 -0.823534 -0.823421 -0.823307 -0.823192 -0.823078 
259 -0.86917 -0.869142 -0.869115 -0.869091 -0.86907 -0.869052 -0.869037 -0.869026 -0.869018 -0.869015 
260 -0.6275 -0.627483 -0.627458 -0.627427 -0.627388 -0.627343 -0.627292 -0.627235 -0.627173 -0.627106 
261 -0.993624 -0.9937 -0.993776 -0.993852 -0.993928 -0.994002 -0.994074 -0.994143 -0.994209 -0.99427 
262 -1.0257 -1.02576 -1.02582 -1.02588 -1.02594 -1.026 -1.02606 -1.02611 -1.02616 -1.02621 
263 -0.850159 -0.850148 -0.850139 -0.850131 -0.850124 -0.850118 -0.850113 -0.850109 -0.850107 -0.850105 
264 -0.83454 -0.834422 -0.834309 -0.834199 -0.834093 -0.833992 -0.833895 -0.833803 -0.833715 -0.833632 
265 -0.709733 -0.709763 -0.70979 -0.709815 -0.709836 -0.709854 -0.709869 -0.70988 -0.709886 -0.709888 
266 -0.669851 -0.669833 -0.669812 -0.669789 -0.669765 -0.66974 -0.669713 -0.669686 -0.669657 -0.669628 
267 -0.909136 -0.909188 -0.909238 -0.909286 -0.909332 -0.909374 -0.909414 -0.909449 -0.909481 -0.909508 
268 -0.841482 -0.841405 -0.841329 -0.841255 -0.841183 -0.841113 -0.841046 -0.840983 -0.840923 -0.840867 
269 -0.850154 -0.850144 -0.850135 -0.850128 -0.850121 -0.850116 -0.850111 -0.850108 -0.850106 -0.850105 
270 -1.00607 -1.00608 -1.0061 -1.00611 -1.00613 -1.00614 -1.00615 -1.00617 -1.00617 -1.00618 
271 -0.966022 -0.966081 -0.96614 -0.966199 -0.966256 -0.966311 -0.966364 -0.966413 -0.966459 -0.966501 
272 -0.690057 -0.690094 -0.690127 -0.690154 -0.690176 -0.690189 -0.690195 -0.690193 -0.690181 -0.690161 
273 -0.773485 -0.773543 -0.773592 -0.773633 -0.773663 -0.773682 -0.77369 -0.773685 -0.773667 -0.773636 
274 -0.73292 -0.732952 -0.73298 -0.733006 -0.733027 -0.733045 -0.733059 -0.733069 -0.733074 -0.733075 
275 -0.849141 -0.849125 -0.84911 -0.849096 -0.849084 -0.849073 -0.849063 -0.849054 -0.849047 -0.849042 
276 -0.977448 -0.977478 -0.977509 -0.977539 -0.977569 -0.977597 -0.977624 -0.977649 -0.977672 -0.977692 
277 -0.850154 -0.850144 -0.850135 -0.850128 -0.850121 -0.850116 -0.850111 -0.850108 -0.850106 -0.850105 
278 -0.71401 -0.714 -0.713985 -0.713964 -0.713938 -0.713907 -0.713871 -0.71383 -0.713785 -0.713737 
279 -0.763456 -0.763498 -0.763534 -0.763563 -0.763585 -0.7636 -0.763606 -0.763605 -0.763595 -0.763577 
280 -0.93623 -0.936276 -0.936321 -0.936364 -0.936407 -0.936447 -0.936485 -0.936521 -0.936554 -0.936583 
281 -0.821983 -0.82197 -0.82196 -0.821953 -0.821949 -0.821945 -0.821942 -0.821937 -0.821931 -0.821921 
282 -0.939151 -0.939147 -0.939141 -0.939134 -0.939126 -0.939116 -0.939105 -0.939093 -0.93908 -0.939065 
283 -0.894063 -0.894068 -0.894072 -0.894075 -0.894076 -0.894076 -0.894074 -0.894071 -0.894066 -0.894059 
284 -0.798681 -0.798703 -0.798723 -0.798742 -0.798756 -0.798766 -0.79877 -0.798767 -0.798756 -0.798736 
285 -0.743708 -0.743771 -0.743848 -0.743938 -0.744038 -0.744147 -0.744262 -0.744381 -0.744501 -0.744619 
286 -0.850154 -0.850144 -0.850135 -0.850128 -0.850121 -0.850116 -0.850111 -0.850108 -0.850106 -0.850105 