VARIABLES = "Cell" "Mode 0" "Mode 1" "Mode 2" "Mode 3" "Mode 4" "Mode 5" "Mode 6" "Mode 7" "Mode 8" "Mode 9" 
ZONE T = Iteration353
0 -0.851443 -0.851435 -0.851428 -0.85142 -0.851412 -0.851404 -0.851396 -0.851388 -0.85138 -0.851372 
1 -0.851443 -0.851435 -0.851428 -0.85142 -0.851412 -0.851404 -0.851396 -0.851388 -0.85138 -0.851372 
2 -0.851443 -0.851435 -0.851428 -0.85142 -0.851412 -0.851404 -0.851396 -0.851388 -0.85138 -0.851372 
3 -0.851443 -0.851435 -0.851428 -0.85142 -0.851412 -0.851404 -0.851396 -0.851388 -0.85138 -0.851372 
4 -0.851443 -0.851435 -0.851428 -0.85142 -0.851412 -0.851404 -0.851396 -0.851388 -0.85138 -0.851372 
5 -0.851443 -0.851435 -0.851428 -0.85142 -0.851412 -0.851404 -0.851396 -0.851388 -0.85138 -0.851372 
6 -0.851443 -0.851435 -0.851428 -0.85142 -0.851412 -0.851404 -0.851396 -0.851388 -0.85138 -0.851372 
7 -0.851443 -0.851435 -0.851428 -0.85142 -0.851412 -0.851404 -0.851396 -0.851388 -0.85138 -0.851372 
8 -0.851443 -0.851435 -0.851428 -0.85142 -0.851412 -0.851404 -0.851396 -0.851388 -0.85138 -0.851372 
9 -0.851443 -0.851435 -0.851428 -0.85142 -0.851412 -0.851404 -0.851396 -0.851388 -0.85138 -0.851372 
10 -0.851443 -0.851435 -0.851428 -0.85142 -0.851412 -0.851404 -0.851396 -0.851388 -0.85138 -0.851372 
11 -0.851443 -0.851435 -0.851428 -0.85142 -0.851412 -0.851404 -0.851396 -0.851388 -0.85138 -0.851372 
12 -0.851443 -0.851435 -0.851428 -0.85142 -0.851412 -0.851404 -0.851396 -0.851388 -0.85138 -0.851372 
13 -0.851443 -0.851435 -0.851428 -0.85142 -0.851412 -0.851404 -0.851396 -0.851388 -0.85138 -0.851372 
14 -0.851443 -0.851435 -0.851428 -0.85142 -0.851412 -0.851404 -0.851396 -0.851388 -0.85138 -0.851372 
15 -0.851443 -0.851435 -0.851428 -0.85142 -0.851412 -0.851404 -0.851396 -0.851388 -0.85138 -0.851372 
16 -0.851443 -0.851435 -0.851428 -0.85142 -0.851412 -0.851404 -0.851396 -0.851388 -0.85138 -0.851372 
17 -0.851443 -0.851435 -0.851428 -0.85142 -0.851412 -0.851404 -0.851396 -0.851388 -0.85138 -0.851372 
18 -0.851443 -0.851435 -0.851428 -0.85142 -0.851412 -0.851404 -0.851396 -0.851388 -0.85138 -0.851372 
19 -0.851443 -0.851435 -0.851428 -0.85142 -0.851412 -0.851404 -0.851396 -0.851388 -0.85138 -0.851372 
20 -0.851443 -0.851435 -0.851428 -0.85142 -0.851412 -0.851404 -0.851396 -0.851388 -0.85138 -0.851372 
21 -0.851443 -0.851435 -0.851428 -0.85142 -0.851412 -0.851404 -0.851396 -0.851388 -0.85138 -0.851372 
22 -0.851443 -0.851435 -0.851428 -0.85142 -0.851412 -0.851404 -0.851396 -0.851388 -0.85138 -0.851372 
23 -0.851443 -0.851435 -0.851428 -0.85142 -0.851412 -0.851404 -0.851396 -0.851388 -0.85138 -0.851372 
24 -0.851443 -0.851435 -0.851428 -0.85142 -0.851412 -0.851404 -0.851396 -0.851388 -0.85138 -0.851372 
25 -0.851443 -0.851435 -0.851428 -0.85142 -0.851412 -0.851404 -0.851396 -0.851388 -0.85138 -0.851372 
26 -0.851443 -0.851435 -0.851428 -0.85142 -0.851412 -0.851404 -0.851396 -0.851388 -0.85138 -0.851372 
27 -0.851443 -0.851435 -0.851428 -0.85142 -0.851412 -0.851404 -0.851396 -0.851388 -0.85138 -0.851372 
28 -0.851443 -0.851435 -0.851428 -0.85142 -0.851412 -0.851404 -0.851396 -0.851388 -0.85138 -0.851372 
29 -0.851443 -0.851435 -0.851428 -0.85142 -0.851412 -0.851404 -0.851396 -0.851388 -0.85138 -0.851372 
30 -0.851443 -0.851435 -0.851428 -0.85142 -0.851412 -0.851404 -0.851396 -0.851388 -0.85138 -0.851372 
31 -0.851443 -0.851435 -0.851428 -0.85142 -0.851412 -0.851404 -0.851396 -0.851388 -0.85138 -0.851372 
32 -0.851443 -0.851435 -0.851428 -0.85142 -0.851412 -0.851404 -0.851396 -0.851388 -0.85138 -0.851372 
33 -0.851443 -0.851435 -0.851428 -0.85142 -0.851412 -0.851404 -0.851396 -0.851388 -0.85138 -0.851372 
34 -0.851443 -0.851435 -0.851428 -0.85142 -0.851412 -0.851404 -0.851396 -0.851388 -0.85138 -0.851372 
35 -0.851443 -0.851435 -0.851428 -0.85142 -0.851412 -0.851404 -0.851396 -0.851388 -0.85138 -0.851372 
36 -0.851443 -0.851435 -0.851428 -0.85142 -0.851412 -0.851404 -0.851396 -0.851388 -0.85138 -0.851372 
37 -0.851443 -0.851435 -0.851428 -0.85142 -0.851412 -0.851404 -0.851396 -0.851388 -0.85138 -0.851372 
38 -0.851443 -0.851435 -0.851428 -0.85142 -0.851412 -0.851404 -0.851396 -0.851388 -0.85138 -0.851372 
39 -0.851443 -0.851435 -0.851428 -0.85142 -0.851412 -0.851404 -0.851396 -0.851388 -0.85138 -0.851372 
40 -0.851443 -0.851435 -0.851428 -0.85142 -0.851412 -0.851404 -0.851396 -0.851388 -0.85138 -0.851372 
41 -0.851443 -0.851435 -0.851428 -0.85142 -0.851412 -0.851404 -0.851396 -0.851388 -0.85138 -0.851372 
42 -0.851443 -0.851435 -0.851428 -0.85142 -0.851412 -0.851404 -0.851396 -0.851388 -0.85138 -0.851372 
43 -0.851443 -0.851435 -0.851428 -0.85142 -0.851412 -0.851404 -0.851396 -0.851388 -0.85138 -0.851372 
44 -0.851443 -0.851435 -0.851428 -0.85142 -0.851412 -0.851404 -0.851396 -0.851388 -0.85138 -0.851372 
45 -0.851443 -0.851435 -0.851428 -0.85142 -0.851412 -0.851404 -0.851396 -0.851388 -0.85138 -0.851372 
46 -0.851443 -0.851435 -0.851428 -0.85142 -0.851412 -0.851404 -0.851396 -0.851388 -0.85138 -0.851372 
47 -0.851443 -0.851435 -0.851428 -0.85142 -0.851412 -0.851404 -0.851396 -0.851388 -0.85138 -0.851372 
48 -0.851443 -0.851435 -0.851428 -0.85142 -0.851412 -0.851404 -0.851396 -0.851388 -0.85138 -0.851372 
49 -0.851443 -0.851435 -0.851428 -0.85142 -0.851412 -0.851404 -0.851396 -0.851388 -0.85138 -0.851372 
50 -0.851443 -0.851435 -0.851428 -0.85142 -0.851412 -0.851404 -0.851396 -0.851388 -0.85138 -0.851372 
51 -0.851443 -0.851435 -0.851428 -0.85142 -0.851412 -0.851404 -0.851396 -0.851388 -0.85138 -0.851372 
52 -0.851443 -0.851435 -0.851428 -0.85142 -0.851412 -0.851404 -0.851396 -0.851388 -0.85138 -0.851372 
53 -0.851443 -0.851435 -0.851428 -0.85142 -0.851412 -0.851404 -0.851396 -0.851388 -0.85138 -0.851372 
54 -0.851443 -0.851435 -0.851428 -0.85142 -0.851412 -0.851404 -0.851396 -0.851388 -0.85138 -0.851372 
55 -0.851443 -0.851435 -0.851428 -0.85142 -0.851412 -0.851404 -0.851396 -0.851388 -0.85138 -0.851372 
56 -0.851443 -0.851435 -0.851428 -0.85142 -0.851412 -0.851404 -0.851396 -0.851388 -0.85138 -0.851372 
57 -0.851443 -0.851435 -0.851428 -0.85142 -0.851412 -0.851404 -0.851396 -0.851388 -0.85138 -0.851372 
58 -0.851443 -0.851435 -0.851428 -0.85142 -0.851412 -0.851404 -0.851396 -0.851388 -0.85138 -0.851372 
59 -0.851443 -0.851435 -0.851428 -0.85142 -0.851412 -0.851404 -0.851396 -0.851388 -0.85138 -0.851372 
60 -0.851443 -0.851435 -0.851428 -0.85142 -0.851412 -0.851404 -0.851396 -0.851388 -0.85138 -0.851372 
61 -0.851443 -0.851435 -0.851428 -0.85142 -0.851412 -0.851404 -0.851396 -0.851388 -0.85138 -0.851372 
62 -0.851443 -0.851435 -0.851428 -0.85142 -0.851412 -0.851404 -0.851396 -0.851388 -0.85138 -0.851372 
63 -0.851443 -0.851435 -0.851428 -0.85142 -0.851412 -0.851404 -0.851396 -0.851388 -0.85138 -0.851372 
64 -0.851443 -0.851435 -0.851428 -0.85142 -0.851412 -0.851404 -0.851396 -0.851388 -0.85138 -0.851372 
65 -0.851444 -0.851436 -0.851428 -0.85142 -0.851412 -0.851404 -0.851397 -0.851389 -0.851381 -0.851373 
66 -0.851443 -0.851435 -0.851428 -0.85142 -0.851412 -0.851404 -0.851396 -0.851388 -0.85138 -0.851372 
67 -0.851443 -0.851435 -0.851428 -0.85142 -0.851412 -0.851404 -0.851396 -0.851388 -0.85138 -0.851372 
68 -0.851444 -0.851436 -0.851428 -0.85142 -0.851412 -0.851404 -0.851396 -0.851389 -0.851381 -0.851372 
69 -0.851443 -0.851435 -0.851428 -0.85142 -0.851412 -0.851404 -0.851396 -0.851388 -0.85138 -0.851372 
70 -0.851443 -0.851435 -0.851428 -0.85142 -0.851412 -0.851404 -0.851396 -0.851388 -0.85138 -0.851372 
71 -0.851443 -0.851435 -0.851428 -0.85142 -0.851412 -0.851404 -0.851396 -0.851388 -0.85138 -0.851372 
72 -0.851444 -0.851436 -0.851428 -0.85142 -0.851412 -0.851404 -0.851396 -0.851388 -0.851381 -0.851372 
73 -0.851444 -0.851436 -0.851428 -0.85142 -0.851412 -0.851404 -0.851396 -0.851389 -0.851381 -0.851372 
74 -0.851443 -0.851435 -0.851428 -0.85142 -0.851412 -0.851404 -0.851396 -0.851388 -0.85138 -0.851372 
75 -0.851444 -0.851436 -0.851428 -0.85142 -0.851413 -0.851405 -0.851397 -0.851389 -0.851381 -0.851373 
76 -0.851443 -0.851435 -0.851428 -0.85142 -0.851412 -0.851404 -0.851396 -0.851388 -0.85138 -0.851372 
77 -0.851444 -0.851436 -0.851428 -0.85142 -0.851412 -0.851404 -0.851396 -0.851389 -0.851381 -0.851372 
78 -0.851443 -0.851435 -0.851428 -0.85142 -0.851412 -0.851404 -0.851396 -0.851388 -0.85138 -0.851372 
79 -0.851438 -0.85143 -0.851422 -0.851414 -0.851406 -0.851399 -0.851391 -0.851383 -0.851375 -0.851367 
80 -0.851445 -0.851437 -0.85143 -0.851422 -0.851414 -0.851406 -0.851398 -0.85139 -0.851383 -0.851374 
81 -0.851447 -0.851439 -0.851431 -0.851423 -0.851415 -0.851407 -0.851399 -0.851391 -0.851383 -0.851375 
82 -0.851437 -0.851429 -0.851421 -0.851414 -0.851406 -0.851398 -0.851391 -0.851383 -0.851375 -0.851367 
83 -0.851442 -0.851434 -0.851426 -0.851418 -0.85141 -0.851403 -0.851395 -0.851387 -0.851379 -0.851371 
84 -0.851441 -0.851433 -0.851425 -0.851417 -0.85141 -0.851402 -0.851394 -0.851386 -0.851378 -0.85137 
85 -0.851437 -0.851429 -0.851421 -0.851413 -0.851406 -0.851398 -0.85139 -0.851382 -0.851375 -0.851366 
86 -0.851444 -0.851436 -0.851428 -0.85142 -0.851412 -0.851404 -0.851397 -0.851389 -0.851381 -0.851373 
87 -0.851443 -0.851435 -0.851428 -0.85142 -0.851412 -0.851404 -0.851396 -0.851388 -0.85138 -0.851372 
88 -0.851446 -0.851438 -0.85143 -0.851422 -0.851414 -0.851407 -0.851399 -0.851391 -0.851383 -0.851375 
89 -0.851506 -0.851498 -0.851489 -0.85148 -0.851472 -0.851463 -0.851455 -0.851446 -0.851437 -0.851428 
90 -0.851444 -0.851436 -0.851428 -0.85142 -0.851412 -0.851404 -0.851396 -0.851389 -0.851381 -0.851372 
91 -0.851368 -0.851361 -0.851354 -0.851348 -0.851341 -0.851334 -0.851327 -0.85132 -0.851313 -0.851306 
92 -0.851496 -0.851487 -0.851478 -0.851469 -0.851461 -0.851452 -0.851443 -0.851435 -0.851426 -0.851417 
93 -0.851544 -0.851534 -0.851523 -0.851513 -0.851503 -0.851493 -0.851482 -0.851472 -0.851461 -0.851451 
94 -0.851443 -0.851435 -0.851428 -0.85142 -0.851412 -0.851404 -0.851396 -0.851388 -0.85138 -0.851372 
95 -0.851361 -0.851352 -0.851343 -0.851334 -0.851325 -0.851316 -0.851307 -0.851299 -0.85129 -0.851281 
96 -0.851357 -0.851349 -0.851341 -0.851333 -0.851325 -0.851317 -0.851309 -0.851301 -0.851293 -0.851285 
97 -0.851587 -0.851576 -0.851565 -0.851554 -0.851543 -0.851532 -0.851521 -0.85151 -0.851499 -0.851488 
98 -0.851444 -0.851436 -0.851428 -0.851421 -0.851413 -0.851405 -0.851397 -0.851389 -0.851381 -0.851373 
99 -0.851223 -0.851226 -0.851229 -0.851231 -0.851234 -0.851237 -0.85124 -0.851243 -0.851245 -0.851248 
100 -0.852225 -0.852208 -0.85219 -0.852172 -0.852154 -0.852136 -0.852118 -0.852099 -0.85208 -0.85206 
101 -0.851471 -0.851463 -0.851455 -0.851446 -0.851438 -0.85143 -0.851422 -0.851414 -0.851406 -0.851398 
102 -0.851568 -0.851571 -0.851573 -0.851575 -0.851577 -0.851579 -0.851581 -0.851582 -0.851583 -0.851584 
103 -0.851478 -0.851468 -0.851459 -0.85145 -0.851441 -0.851432 -0.851424 -0.851415 -0.851406 -0.851396 
104 -0.852098 -0.85209 -0.852082 -0.852074 -0.852065 -0.852057 -0.852048 -0.852039 -0.85203 -0.85202 
105 -0.851345 -0.851328 -0.851311 -0.851295 -0.851279 -0.851264 -0.851248 -0.851233 -0.851218 -0.851203 
106 -0.851416 -0.851408 -0.8514 -0.851393 -0.851385 -0.851378 -0.85137 -0.851362 -0.851355 -0.851347 
107 -0.851443 -0.851435 -0.851428 -0.85142 -0.851412 -0.851404 -0.851396 -0.851388 -0.85138 -0.851372 
108 -0.851553 -0.851548 -0.851544 -0.85154 -0.851535 -0.851531 -0.851526 -0.851522 -0.851517 -0.851512 
109 -0.85046 -0.850468 -0.850477 -0.850486 -0.850495 -0.850504 -0.850513 -0.850522 -0.850531 -0.850541 
110 -0.849485 -0.849475 -0.849466 -0.849458 -0.849451 -0.849445 -0.84944 -0.849436 -0.849432 -0.849429 
111 -0.850726 -0.850769 -0.850812 -0.850855 -0.850898 -0.850941 -0.850983 -0.851025 -0.851066 -0.851107 
112 -0.851585 -0.851575 -0.851565 -0.851555 -0.851545 -0.851534 -0.851524 -0.851514 -0.851504 -0.851493 
113 -0.851443 -0.851435 -0.851428 -0.85142 -0.851412 -0.851404 -0.851396 -0.851388 -0.85138 -0.851372 
114 -0.850759 -0.850767 -0.850774 -0.850781 -0.850789 -0.850796 -0.850803 -0.85081 -0.850816 -0.850822 
115 -0.85271 -0.852662 -0.852614 -0.852565 -0.852516 -0.852466 -0.852416 -0.852365 -0.852314 -0.852263 
116 -0.851353 -0.851362 -0.85137 -0.851378 -0.851386 -0.851394 -0.851402 -0.851409 -0.851416 -0.851422 
117 -0.849452 -0.849459 -0.849467 -0.849476 -0.849487 -0.849499 -0.849512 -0.849526 -0.849541 -0.849558 
118 -0.849812 -0.849791 -0.84977 -0.849748 -0.849727 -0.849706 -0.849684 -0.849663 -0.849642 -0.84962 
119 -0.84827 -0.848269 -0.84827 -0.848271 -0.848272 -0.848274 -0.848277 -0.848281 -0.848284 -0.848289 
120 -0.851172 -0.85115 -0.851128 -0.851108 -0.851087 -0.851068 -0.851049 -0.85103 -0.851012 -0.850995 
121 -0.852699 -0.852731 -0.852763 -0.852794 -0.852824 -0.852854 -0.852883 -0.852911 -0.852939 -0.852965 
122 -0.849755 -0.849701 -0.849647 -0.849593 -0.84954 -0.849486 -0.849433 -0.84938 -0.849327 -0.849274 
123 -0.848031 -0.848022 -0.848013 -0.848005 -0.847999 -0.847993 -0.847988 -0.847985 -0.847982 -0.847981 
124 -0.853151 -0.853172 -0.853193 -0.853213 -0.853234 -0.853254 -0.853275 -0.853295 -0.853314 -0.853333 
125 -0.85307 -0.853079 -0.853088 -0.853096 -0.853104 -0.853112 -0.85312 -0.853127 -0.853134 -0.85314 
126 -0.851441 -0.851433 -0.851425 -0.851418 -0.85141 -0.851402 -0.851394 -0.851386 -0.851379 -0.85137 
127 -0.851404 -0.851365 -0.851325 -0.851284 -0.851242 -0.851199 -0.851155 -0.851111 -0.851065 -0.851019 
128 -0.855032 -0.855052 -0.855071 -0.85509 -0.855108 -0.855126 -0.855144 -0.855161 -0.855177 -0.855193 
129 -0.851897 -0.851916 -0.851936 -0.851958 -0.851981 -0.852006 -0.852033 -0.85206 -0.85209 -0.85212 
130 -0.852057 -0.852072 -0.852088 -0.852106 -0.852124 -0.852144 -0.852165 -0.852187 -0.852211 -0.852235 
131 -0.849045 -0.849032 -0.849019 -0.849007 -0.848995 -0.848983 -0.848972 -0.848961 -0.84895 -0.848939 
132 -0.850296 -0.850245 -0.850192 -0.850139 -0.850085 -0.850029 -0.849973 -0.849916 -0.849858 -0.849799 
133 -0.851336 -0.851328 -0.85132 -0.851313 -0.851307 -0.8513 -0.851294 -0.851288 -0.851282 -0.851277 
134 -0.85265 -0.852642 -0.852633 -0.852623 -0.852612 -0.8526 -0.852586 -0.852572 -0.852556 -0.852538 
135 -0.851124 -0.851051 -0.850977 -0.850901 -0.850824 -0.850745 -0.850665 -0.850583 -0.850499 -0.850414 
136 -0.851446 -0.851438 -0.851429 -0.851421 -0.851413 -0.851405 -0.851397 -0.851389 -0.851381 -0.851372 
137 -0.850851 -0.85085 -0.85085 -0.85085 -0.85085 -0.85085 -0.850851 -0.850851 -0.850852 -0.850852 
138 -0.85214 -0.852157 -0.852175 -0.852195 -0.852216 -0.852239 -0.852264 -0.85229 -0.852318 -0.852347 
139 -0.849451 -0.849446 -0.84944 -0.849433 -0.849424 -0.849414 -0.849402 -0.849388 -0.849372 -0.849355 
140 -0.850241 -0.850223 -0.850204 -0.850185 -0.850166 -0.850147 -0.850127 -0.850107 -0.850088 -0.850067 
141 -0.850565 -0.850562 -0.850562 -0.850564 -0.85057 -0.850578 -0.850588 -0.850601 -0.850617 -0.850635 
142 -0.850267 -0.850249 -0.850229 -0.850207 -0.850184 -0.850159 -0.850132 -0.850103 -0.850072 -0.85004 
143 -0.856014 -0.856019 -0.856024 -0.856029 -0.856033 -0.856037 -0.856041 -0.856044 -0.856047 -0.85605 
144 -0.851935 -0.851969 -0.852003 -0.852037 -0.852071 -0.852104 -0.852137 -0.852169 -0.852201 -0.852232 
145 -0.849485 -0.849415 -0.849344 -0.849274 -0.849203 -0.849131 -0.84906 -0.848988 -0.848915 -0.848843 
146 -0.853352 -0.853384 -0.853418 -0.853454 -0.85349 -0.853527 -0.853565 -0.853604 -0.853644 -0.853685 
147 -0.855586 -0.855591 -0.855596 -0.855601 -0.855606 -0.855611 -0.855615 -0.85562 -0.855625 -0.855629 
148 -0.849925 -0.849872 -0.849819 -0.849767 -0.849714 -0.849661 -0.849608 -0.849556 -0.849503 -0.84945 
149 -0.853921 -0.85394 -0.853961 -0.853983 -0.854006 -0.854031 -0.854057 -0.854084 -0.854112 -0.854142 
150 -0.857119 -0.857091 -0.857061 -0.857031 -0.856999 -0.856966 -0.856932 -0.856897 -0.856861 -0.856823 
151 -0.850662 -0.850663 -0.850662 -0.85066 -0.850657 -0.850651 -0.850645 -0.850636 -0.850626 -0.850614 
152 -0.848607 -0.848576 -0.848545 -0.848514 -0.848484 -0.848453 -0.848423 -0.848392 -0.848361 -0.84833 
153 -0.851652 -0.851712 -0.851772 -0.851832 -0.851892 -0.851952 -0.852012 -0.852072 -0.852132 -0.852191 
154 -0.850165 -0.850214 -0.850264 -0.850313 -0.850362 -0.850411 -0.85046 -0.850508 -0.850556 -0.850602 
155 -0.848019 -0.847999 -0.847978 -0.847955 -0.84793 -0.847903 -0.847874 -0.847844 -0.847812 -0.847778 
156 -0.855937 -0.855985 -0.856033 -0.856082 -0.856131 -0.856181 -0.856231 -0.856281 -0.85633 -0.85638 
157 -0.8574 -0.857427 -0.857454 -0.857482 -0.85751 -0.857538 -0.857567 -0.857595 -0.857624 -0.857654 
158 -0.847377 -0.847328 -0.847277 -0.847226 -0.847174 -0.847121 -0.847068 -0.847014 -0.846959 -0.846903 
159 -0.849735 -0.849732 -0.849729 -0.849727 -0.849725 -0.849723 -0.849722 -0.84972 -0.849719 -0.849719 
160 -0.858754 -0.858698 -0.858641 -0.858582 -0.858521 -0.858458 -0.858394 -0.858329 -0.858262 -0.858193 
161 -0.83771 -0.837735 -0.83776 -0.837785 -0.83781 -0.837835 -0.83786 -0.837885 -0.837908 -0.837932 
162 -0.846313 -0.846342 -0.846372 -0.846404 -0.846437 -0.846471 -0.846507 -0.846544 -0.846583 -0.846623 
163 -0.842332 -0.842311 -0.842289 -0.842267 -0.842243 -0.84222 -0.842196 -0.842172 -0.842148 -0.842124 
164 -0.857528 -0.857573 -0.85762 -0.857669 -0.85772 -0.857774 -0.857828 -0.857884 -0.857941 -0.857999 
165 -0.860909 -0.860919 -0.860926 -0.860932 -0.860936 -0.860937 -0.860937 -0.860934 -0.860929 -0.860921 
166 -0.835872 -0.835876 -0.83588 -0.835885 -0.83589 -0.835895 -0.8359 -0.835906 -0.835911 -0.835917 
167 -0.85243 -0.852461 -0.852495 -0.852533 -0.852573 -0.852616 -0.852662 -0.852711 -0.852761 -0.852815 
168 -0.838556 -0.838575 -0.838596 -0.838618 -0.838641 -0.838665 -0.838691 -0.838718 -0.838746 -0.838775 
169 -0.861952 -0.861906 -0.861858 -0.861807 -0.861754 -0.861699 -0.861641 -0.861582 -0.861521 -0.861458 
170 -0.863246 -0.863284 -0.863325 -0.863368 -0.863414 -0.863461 -0.863511 -0.863562 -0.863614 -0.863667 
171 -0.864605 -0.864637 -0.864669 -0.8647 -0.86473 -0.864758 -0.864784 -0.864808 -0.864829 -0.864847 
172 -0.841999 -0.842023 -0.842047 -0.842071 -0.842094 -0.842117 -0.842139 -0.84216 -0.84218 -0.842199 
173 -0.851443 -0.851435 -0.851428 -0.85142 -0.851412 -0.851404 -0.851396 -0.851388 -0.85138 -0.851372 
174 -0.860233 -0.860235 -0.860239 -0.860245 -0.860254 -0.860266 -0.86028 -0.860298 -0.86032 -0.860345 
175 -0.870424 -0.870424 -0.870427 -0.870435 -0.870447 -0.870464 -0.870486 -0.870512 -0.870543 -0.870578 
176 -0.842189 -0.842198 -0.842208 -0.84222 -0.842234 -0.84225 -0.842268 -0.842288 -0.84231 -0.842333 
177 -0.833111 -0.83314 -0.833171 -0.833204 -0.833238 -0.833275 -0.833313 -0.833352 -0.833392 -0.833432 
178 -0.868228 -0.868215 -0.868207 -0.868203 -0.868204 -0.868211 -0.868223 -0.868242 -0.868266 -0.868297 
179 -0.851443 -0.851435 -0.851428 -0.85142 -0.851412 -0.851404 -0.851396 -0.851388 -0.85138 -0.851372 
180 -0.847453 -0.847437 -0.847421 -0.847406 -0.847393 -0.847381 -0.847372 -0.847366 -0.847362 -0.847363 
181 -0.872574 -0.872584 -0.872594 -0.872606 -0.872617 -0.872629 -0.872641 -0.872652 -0.872664 -0.872674 
182 -0.826075 -0.826069 -0.826066 -0.826067 -0.82607 -0.826077 -0.826086 -0.826098 -0.826114 -0.826131 
183 -0.833796 -0.833793 -0.833793 -0.833795 -0.833801 -0.833809 -0.833821 -0.833836 -0.833854 -0.833874 
184 -0.834341 -0.834399 -0.834458 -0.834514 -0.83457 -0.834624 -0.834676 -0.834725 -0.834773 -0.834818 
185 -0.87481 -0.874811 -0.874816 -0.874827 -0.874842 -0.874862 -0.874887 -0.874916 -0.874949 -0.874987 
186 -0.885864 -0.885859 -0.885856 -0.885853 -0.885852 -0.885854 -0.885858 -0.885865 -0.885875 -0.885889 
187 -0.831849 -0.83186 -0.831876 -0.831898 -0.831925 -0.831958 -0.831995 -0.832036 -0.83208 -0.832128 
188 -0.859061 -0.85905 -0.859037 -0.859021 -0.859004 -0.858986 -0.858966 -0.858945 -0.858924 -0.858903 
189 -0.882735 -0.882722 -0.882705 -0.882686 -0.882664 -0.88264 -0.882614 -0.882587 -0.88256 -0.882533 
190 -0.849817 -0.849791 -0.849767 -0.849744 -0.849722 -0.849701 -0.849682 -0.849664 -0.849647 -0.849631 
191 -0.851443 -0.851435 -0.851428 -0.85142 -0.851412 -0.851404 -0.851396 -0.851388 -0.85138 -0.851372 
192 -0.804824 -0.80483 -0.804838 -0.804849 -0.804862 -0.804877 -0.804894 -0.804912 -0.804932 -0.804954 
193 -0.851443 -0.851435 -0.851428 -0.85142 -0.851412 -0.851404 -0.851396 -0.851388 -0.85138 -0.851372 
194 -0.861813 -0.861771 -0.861728 -0.861683 -0.861636 -0.861588 -0.861538 -0.861487 -0.861434 -0.861379 
195 -0.848539 -0.848552 -0.848562 -0.848566 -0.848567 -0.848562 -0.848553 -0.848539 -0.848522 -0.8485 
196 -0.846893 -0.846859 -0.846825 -0.846789 -0.846753 -0.846716 -0.846677 -0.846638 -0.846598 -0.846557 
197 -0.850964 -0.850961 -0.850959 -0.850958 -0.850957 -0.850957 -0.850957 -0.850958 -0.850959 -0.850959 
198 -0.851443 -0.851435 -0.851428 -0.85142 -0.851412 -0.851404 -0.851396 -0.851388 -0.85138 -0.851372 
199 -0.791862 -0.791833 -0.791809 -0.791791 -0.79178 -0.791775 -0.791777 -0.791786 -0.791801 -0.791823 
200 -0.827471 -0.827488 -0.827502 -0.827513 -0.82752 -0.827525 -0.827526 -0.827523 -0.827517 -0.827508 
201 -0.900794 -0.900783 -0.900767 -0.900746 -0.900722 -0.900693 -0.900661 -0.900626 -0.900588 -0.900548 
202 -0.851443 -0.851435 -0.851428 -0.85142 -0.851412 -0.851404 -0.851396 -0.851388 -0.85138 -0.851372 
203 -0.870061 -0.870052 -0.870044 -0.870035 -0.870025 -0.870014 -0.870002 -0.869988 -0.869973 -0.869956 
204 -0.852256 -0.852218 -0.852179 -0.85214 -0.852101 -0.852061 -0.852021 -0.85198 -0.851939 -0.851897 
205 -0.893799 -0.893792 -0.893785 -0.893778 -0.893771 -0.893765 -0.89376 -0.893757 -0.893755 -0.893756 
206 -0.851443 -0.851435 -0.851428 -0.85142 -0.851412 -0.851404 -0.851396 -0.851388 -0.85138 -0.851372 
207 -0.770129 -0.770136 -0.770147 -0.770159 -0.770174 -0.770191 -0.77021 -0.77023 -0.770252 -0.770276 
208 -0.853126 -0.853135 -0.853138 -0.853136 -0.853128 -0.853115 -0.853098 -0.853075 -0.853048 -0.853017 
209 -0.889184 -0.889184 -0.889185 -0.889187 -0.88919 -0.889195 -0.889202 -0.88921 -0.88922 -0.889232 
210 -0.910802 -0.910801 -0.910795 -0.910785 -0.910769 -0.910749 -0.910724 -0.910695 -0.910662 -0.910627 
211 -0.851443 -0.851435 -0.851428 -0.85142 -0.851412 -0.851404 -0.851396 -0.851388 -0.85138 -0.851372 
212 -0.851443 -0.851435 -0.851428 -0.85142 -0.851412 -0.851404 -0.851396 -0.851388 -0.85138 -0.851372 
213 -0.84386 -0.843873 -0.843884 -0.843894 -0.843902 -0.843909 -0.843915 -0.843919 -0.843921 -0.843922 
214 -0.75739 -0.757375 -0.757363 -0.757355 -0.757352 -0.757353 -0.757359 -0.757369 -0.757384 -0.757403 
215 -0.787586 -0.787626 -0.787662 -0.787694 -0.78772 -0.78774 -0.787754 -0.787762 -0.787763 -0.787757 
216 -0.79553 -0.79557 -0.795605 -0.795635 -0.795658 -0.795674 -0.795683 -0.795685 -0.795679 -0.795666 
217 -0.855785 -0.855725 -0.855664 -0.855601 -0.855538 -0.855473 -0.855407 -0.85534 -0.855271 -0.8552 
218 -0.834884 -0.83493 -0.834969 -0.835001 -0.835026 -0.835042 -0.83505 -0.83505 -0.835042 -0.835026 
219 -0.851974 -0.851964 -0.851953 -0.851943 -0.851933 -0.851923 -0.851912 -0.851902 -0.851891 -0.85188 
220 -0.943222 -0.943234 -0.943242 -0.943247 -0.943247 -0.943242 -0.943233 -0.943218 -0.943198 -0.943173 
221 -0.782531 -0.782556 -0.782578 -0.782597 -0.782613 -0.782626 -0.782634 -0.782639 -0.782639 -0.782634 
222 -0.726308 -0.726358 -0.726402 -0.72644 -0.726472 -0.726496 -0.726513 -0.726523 -0.726527 -0.726523 
223 -0.896264 -0.896303 -0.896338 -0.896367 -0.896391 -0.896408 -0.896418 -0.896421 -0.896416 -0.896404 
224 -0.91743 -0.91743 -0.917426 -0.917417 -0.917403 -0.917385 -0.917363 -0.917337 -0.917307 -0.917274 
225 -0.831527 -0.831573 -0.831621 -0.831672 -0.831724 -0.831778 -0.831834 -0.831891 -0.83195 -0.83201 
226 -0.797621 -0.797568 -0.797516 -0.797467 -0.79742 -0.797378 -0.797339 -0.797307 -0.79728 -0.797259 
227 -0.880697 -0.880754 -0.880809 -0.880859 -0.880905 -0.880945 -0.88098 -0.881008 -0.881029 -0.881043 
228 -0.820502 -0.820476 -0.820452 -0.820432 -0.820415 -0.820403 -0.820395 -0.820391 -0.820393 -0.8204 
229 -0.851443 -0.851435 -0.851428 -0.85142 -0.851412 -0.851404 -0.851396 -0.851388 -0.85138 -0.851372 
230 -0.851443 -0.851435 -0.851428 -0.85142 -0.851412 -0.851404 -0.851396 -0.851388 -0.85138 -0.851372 
231 -0.851443 -0.851435 -0.851427 -0.85142 -0.851412 -0.851404 -0.851396 -0.851388 -0.85138 -0.851372 
232 -1.08302 -1.08307 -1.0831 -1.08313 -1.08315 -1.08316 -1.08315 -1.08313 -1.08311 -1.08307 
233 -0.851451 -0.851443 -0.851435 -0.851427 -0.851419 -0.851411 -0.851403 -0.851395 -0.851386 -0.851378 
234 -0.977325 -0.977341 -0.977352 -0.977358 -0.977358 -0.977353 -0.977341 -0.977322 -0.977297 -0.977266 
235 -0.634884 -0.634987 -0.635092 -0.635195 -0.635296 -0.635394 -0.635487 -0.635574 -0.635655 -0.635728 
236 -0.908797 -0.90879 -0.90878 -0.908765 -0.908747 -0.908725 -0.9087 -0.908671 -0.90864 -0.908607 
237 -1.09841 -1.09846 -1.0985 -1.09853 -1.09856 -1.09857 -1.09858 -1.09857 -1.09856 -1.09853 
238 -0.852862 -0.852856 -0.85285 -0.852845 -0.852839 -0.852832 -0.852826 -0.852819 -0.852812 -0.852804 
239 -0.695348 -0.695459 -0.695571 -0.695682 -0.695792 -0.695899 -0.696002 -0.696098 -0.696187 -0.696268 
240 -0.758699 -0.758676 -0.758653 -0.758629 -0.758606 -0.758584 -0.758562 -0.758542 -0.758523 -0.758506 
241 -0.72174 -0.721748 -0.721756 -0.721764 -0.721772 -0.721779 -0.721786 -0.721791 -0.721796 -0.7218 
242 -0.851442 -0.851434 -0.851426 -0.851418 -0.85141 -0.851403 -0.851395 -0.851387 -0.851379 -0.851371 
243 -0.984404 -0.984413 -0.984417 -0.984417 -0.984413 -0.984403 -0.984389 -0.984369 -0.984345 -0.984315 
244 -1.11106 -1.11108 -1.11109 -1.11109 -1.11109 -1.11107 -1.11105 -1.11101 -1.11097 -1.11092 
245 -0.509263 -0.509326 -0.509393 -0.509465 -0.50954 -0.509618 -0.509698 -0.509779 -0.509861 -0.509944 
246 -1.04416 -1.04417 -1.04418 -1.04418 -1.04417 -1.04416 -1.04413 -1.0441 -1.04406 -1.04401 
247 -0.847765 -0.847744 -0.847724 -0.847704 -0.847686 -0.847669 -0.847652 -0.847636 -0.847622 -0.847608 
248 -0.851443 -0.851435 -0.851428 -0.85142 -0.851412 -0.851404 -0.851396 -0.851388 -0.85138 -0.851372 
249 -0.597701 -0.597743 -0.597788 -0.597834 -0.59788 -0.597927 -0.597975 -0.598022 -0.598068 -0.598113 
250 -0.811526 -0.81145 -0.811375 -0.811302 -0.811233 -0.811167 -0.811107 -0.811053 -0.811006 -0.810967 
251 -0.765084 -0.76501 -0.764937 -0.764864 -0.764795 -0.764728 -0.764666 -0.764609 -0.764559 -0.764515 
252 -0.73358 -0.733589 -0.733598 -0.733605 -0.73361 -0.733614 -0.733616 -0.733615 -0.733613 -0.733609 
253 -0.851444 -0.851436 -0.851428 -0.85142 -0.851412 -0.851404 -0.851396 -0.851389 -0.851381 -0.851373 
254 -0.881763 -0.881742 -0.881723 -0.881707 -0.881692 -0.881681 -0.881671 -0.881665 -0.881661 -0.881661 
255 -0.851343 -0.851341 -0.851338 -0.851336 -0.851333 -0.851331 -0.851328 -0.851325 -0.851322 -0.851319 
256 -0.860203 -0.860155 -0.860106 -0.860056 -0.860004 -0.859951 -0.859897 -0.859841 -0.859785 -0.859727 
257 -1.04404 -1.04404 -1.04405 -1.04405 -1.04404 -1.04403 -1.04402 -1.044 -1.04398 -1.04395 
258 -0.823925 -0.823922 -0.823922 -0.823925 -0.823932 -0.823944 -0.823959 -0.82398 -0.824005 -0.824035 
259 -0.871133 -0.871121 -0.871111 -0.871104 -0.8711 -0.871098 -0.871098 -0.871101 -0.871105 -0.871111 
260 -0.620608 -0.620607 -0.620609 -0.620616 -0.620626 -0.620639 -0.620656 -0.620676 -0.6207 -0.620726 
261 -0.991876 -0.991877 -0.991874 -0.991867 -0.991856 -0.991839 -0.991817 -0.991791 -0.99176 -0.991723 
262 -1.02424 -1.02424 -1.02423 -1.02422 -1.0242 -1.02418 -1.02416 -1.02413 -1.0241 -1.02406 
263 -0.851495 -0.851488 -0.85148 -0.851473 -0.851466 -0.851458 -0.851451 -0.851443 -0.851436 -0.851428 
264 -0.836813 -0.836886 -0.83696 -0.837034 -0.837109 -0.837183 -0.837257 -0.83733 -0.837402 -0.837473 
265 -0.706285 -0.706269 -0.706252 -0.706236 -0.70622 -0.706204 -0.706188 -0.706172 -0.706157 -0.706143 
266 -0.665211 -0.665219 -0.66523 -0.665245 -0.665261 -0.66528 -0.665301 -0.665324 -0.665349 -0.665374 
267 -0.909402 -0.909382 -0.909359 -0.909334 -0.909306 -0.909276 -0.909245 -0.909212 -0.909177 -0.909141 
268 -0.844562 -0.844608 -0.844656 -0.844704 -0.844753 -0.844804 -0.844855 -0.844908 -0.844961 -0.845015 
269 -0.851443 -0.851435 -0.851427 -0.851419 -0.851412 -0.851404 -0.851396 -0.851388 -0.85138 -0.851372 
270 -1.005 -1.005 -1.00499 -1.00497 -1.00496 -1.00494 -1.00493 -1.00491 -1.00489 -1.00487 
271 -0.965231 -0.965219 -0.965202 -0.965182 -0.965158 -0.96513 -0.965098 -0.965062 -0.965022 -0.964979 
272 -0.688071 -0.688032 -0.687991 -0.687948 -0.687905 -0.68786 -0.687816 -0.687773 -0.687731 -0.687691 
273 -0.77195 -0.771875 -0.771794 -0.771708 -0.771619 -0.771526 -0.771433 -0.77134 -0.771249 -0.771161 
274 -0.730485 -0.730464 -0.730442 -0.730419 -0.730396 -0.730372 -0.730349 -0.730325 -0.730302 -0.73028 
275 -0.851307 -0.851293 -0.851279 -0.851264 -0.85125 -0.851235 -0.85122 -0.851204 -0.851189 -0.851172 
276 -0.977053 -0.977038 -0.97702 -0.977 -0.976977 -0.976951 -0.976924 -0.976893 -0.976861 -0.976827 
277 -0.851443 -0.851435 -0.851428 -0.85142 -0.851412 -0.851404 -0.851396 -0.851388 -0.85138 -0.851372 
278 -0.71155 -0.711525 -0.711501 -0.711481 -0.711463 -0.711449 -0.711438 -0.711431 -0.711427 -0.711427 
279 -0.76244 -0.762376 -0.76231 -0.762242 -0.762172 -0.762103 -0.762034 -0.761967 -0.761902 -0.761839 
280 -0.936244 -0.936217 -0.936188 -0.936156 -0.936122 -0.936085 -0.936045 -0.936003 -0.935959 -0.935913 
281 -0.825612 -0.825585 -0.82555 -0.825508 -0.825459 -0.825403 -0.82534 -0.825271 -0.825196 -0.825116 
282 -0.939248 -0.939228 -0.939207 -0.939187 -0.939167 -0.939148 -0.939129 -0.93911 -0.939092 -0.939075 
283 -0.895201 -0.89517 -0.895139 -0.895107 -0.895076 -0.895044 -0.895013 -0.894983 -0.894954 -0.894925 
284 -0.801395 -0.801334 -0.801264 -0.801188 -0.801104 -0.801014 -0.80092 -0.80082 -0.800718 -0.800613 
285 -0.744865 -0.744906 -0.744932 -0.744943 -0.744937 -0.744917 -0.744883 -0.744834 -0.744774 -0.744702 
286 -0.851443 -0.851435 -0.851428 -0.85142 -0.851412 -0.851404 -0.851396 -0.851388 -0.85138 -0.851372 
287 -0.774694 -0.774774 -0.77485 -0.77492 -0.774986 -0.775045 -0.775098 -0.775145 -0.775186 -0.77522 
288 -0.926387 -0.92636 -0.926332 -0.926303 -0.926273 -0.926243 -0.926212 -0.926181 -0.926149 -0.926117 
289 -0.830695 -0.830773 -0.830849 -0.830923 -0.830993 -0.83106 -0.831122 -0.831179 -0.831231 -0.831277 