VARIABLES = "Cell" "Mode 0" "Mode 1" "Mode 2" "Mode 3" "Mode 4" "Mode 5" "Mode 6" "Mode 7" "Mode 8" "Mode 9" 
ZONE T = Iteration367
0 -0.85158 -0.851568 -0.851557 -0.851546 -0.851536 -0.851525 -0.851515 -0.851505 -0.851496 -0.851486 
1 -0.85158 -0.851568 -0.851557 -0.851546 -0.851536 -0.851525 -0.851515 -0.851505 -0.851496 -0.851486 
2 -0.85158 -0.851568 -0.851557 -0.851546 -0.851536 -0.851525 -0.851515 -0.851505 -0.851496 -0.851486 
3 -0.85158 -0.851568 -0.851557 -0.851546 -0.851536 -0.851525 -0.851515 -0.851505 -0.851496 -0.851486 
4 -0.85158 -0.851568 -0.851557 -0.851546 -0.851536 -0.851525 -0.851515 -0.851505 -0.851496 -0.851486 
5 -0.85158 -0.851568 -0.851557 -0.851546 -0.851536 -0.851525 -0.851515 -0.851505 -0.851496 -0.851486 
6 -0.85158 -0.851568 -0.851557 -0.851546 -0.851536 -0.851525 -0.851515 -0.851505 -0.851496 -0.851486 
7 -0.85158 -0.851568 -0.851557 -0.851546 -0.851536 -0.851525 -0.851515 -0.851505 -0.851496 -0.851486 
8 -0.85158 -0.851568 -0.851557 -0.851546 -0.851536 -0.851525 -0.851515 -0.851505 -0.851496 -0.851486 
9 -0.85158 -0.851568 -0.851557 -0.851546 -0.851536 -0.851525 -0.851515 -0.851505 -0.851496 -0.851486 
10 -0.85158 -0.851568 -0.851557 -0.851546 -0.851536 -0.851525 -0.851515 -0.851505 -0.851496 -0.851486 
11 -0.85158 -0.851568 -0.851557 -0.851546 -0.851536 -0.851525 -0.851515 -0.851505 -0.851496 -0.851486 
12 -0.85158 -0.851568 -0.851557 -0.851546 -0.851536 -0.851525 -0.851515 -0.851505 -0.851496 -0.851486 
13 -0.85158 -0.851568 -0.851557 -0.851546 -0.851536 -0.851525 -0.851515 -0.851505 -0.851496 -0.851486 
14 -0.85158 -0.851568 -0.851557 -0.851546 -0.851536 -0.851525 -0.851515 -0.851505 -0.851496 -0.851486 
15 -0.85158 -0.851568 -0.851557 -0.851546 -0.851536 -0.851525 -0.851515 -0.851505 -0.851496 -0.851486 
16 -0.85158 -0.851568 -0.851557 -0.851546 -0.851536 -0.851525 -0.851515 -0.851505 -0.851496 -0.851486 
17 -0.85158 -0.851568 -0.851557 -0.851546 -0.851536 -0.851525 -0.851515 -0.851505 -0.851496 -0.851486 
18 -0.85158 -0.851568 -0.851557 -0.851546 -0.851536 -0.851525 -0.851515 -0.851505 -0.851496 -0.851486 
19 -0.85158 -0.851568 -0.851557 -0.851546 -0.851536 -0.851525 -0.851515 -0.851505 -0.851496 -0.851486 
20 -0.85158 -0.851568 -0.851557 -0.851546 -0.851536 -0.851525 -0.851515 -0.851505 -0.851496 -0.851486 
21 -0.85158 -0.851568 -0.851557 -0.851546 -0.851536 -0.851525 -0.851515 -0.851505 -0.851496 -0.851486 
22 -0.85158 -0.851568 -0.851557 -0.851546 -0.851536 -0.851525 -0.851515 -0.851505 -0.851496 -0.851486 
23 -0.85158 -0.851568 -0.851557 -0.851546 -0.851536 -0.851525 -0.851515 -0.851505 -0.851496 -0.851486 
24 -0.85158 -0.851568 -0.851557 -0.851546 -0.851536 -0.851525 -0.851515 -0.851505 -0.851496 -0.851486 
25 -0.85158 -0.851568 -0.851557 -0.851546 -0.851536 -0.851525 -0.851515 -0.851505 -0.851496 -0.851486 
26 -0.85158 -0.851568 -0.851557 -0.851546 -0.851536 -0.851525 -0.851515 -0.851505 -0.851496 -0.851486 
27 -0.85158 -0.851568 -0.851557 -0.851546 -0.851536 -0.851525 -0.851515 -0.851505 -0.851496 -0.851486 
28 -0.85158 -0.851568 -0.851557 -0.851546 -0.851536 -0.851525 -0.851515 -0.851505 -0.851496 -0.851486 
29 -0.85158 -0.851568 -0.851557 -0.851546 -0.851536 -0.851525 -0.851515 -0.851505 -0.851496 -0.851486 
30 -0.85158 -0.851568 -0.851557 -0.851546 -0.851536 -0.851525 -0.851515 -0.851505 -0.851496 -0.851486 
31 -0.85158 -0.851568 -0.851557 -0.851546 -0.851536 -0.851525 -0.851515 -0.851505 -0.851496 -0.851486 
32 -0.85158 -0.851568 -0.851557 -0.851546 -0.851536 -0.851525 -0.851515 -0.851505 -0.851496 -0.851486 
33 -0.85158 -0.851568 -0.851557 -0.851546 -0.851536 -0.851525 -0.851515 -0.851505 -0.851496 -0.851486 
34 -0.85158 -0.851568 -0.851557 -0.851546 -0.851536 -0.851525 -0.851515 -0.851505 -0.851496 -0.851486 
35 -0.85158 -0.851568 -0.851557 -0.851546 -0.851536 -0.851525 -0.851515 -0.851505 -0.851496 -0.851486 
36 -0.85158 -0.851568 -0.851557 -0.851546 -0.851536 -0.851525 -0.851515 -0.851505 -0.851496 -0.851486 
37 -0.85158 -0.851568 -0.851557 -0.851546 -0.851536 -0.851525 -0.851515 -0.851505 -0.851496 -0.851486 
38 -0.85158 -0.851568 -0.851557 -0.851546 -0.851536 -0.851525 -0.851515 -0.851505 -0.851496 -0.851486 
39 -0.85158 -0.851568 -0.851557 -0.851546 -0.851536 -0.851525 -0.851515 -0.851505 -0.851496 -0.851486 
40 -0.85158 -0.851568 -0.851557 -0.851546 -0.851536 -0.851525 -0.851515 -0.851505 -0.851496 -0.851486 
41 -0.85158 -0.851568 -0.851557 -0.851546 -0.851536 -0.851525 -0.851515 -0.851505 -0.851496 -0.851486 
42 -0.85158 -0.851568 -0.851557 -0.851546 -0.851536 -0.851525 -0.851515 -0.851505 -0.851496 -0.851486 
43 -0.85158 -0.851568 -0.851557 -0.851546 -0.851536 -0.851525 -0.851515 -0.851505 -0.851496 -0.851486 
44 -0.85158 -0.851568 -0.851557 -0.851546 -0.851536 -0.851525 -0.851515 -0.851505 -0.851496 -0.851486 
45 -0.85158 -0.851568 -0.851557 -0.851546 -0.851536 -0.851525 -0.851515 -0.851505 -0.851496 -0.851486 
46 -0.85158 -0.851568 -0.851557 -0.851546 -0.851536 -0.851525 -0.851515 -0.851505 -0.851496 -0.851486 
47 -0.85158 -0.851568 -0.851557 -0.851546 -0.851536 -0.851525 -0.851515 -0.851505 -0.851496 -0.851486 
48 -0.85158 -0.851568 -0.851557 -0.851546 -0.851536 -0.851525 -0.851515 -0.851505 -0.851496 -0.851486 
49 -0.85158 -0.851568 -0.851557 -0.851546 -0.851536 -0.851525 -0.851515 -0.851505 -0.851496 -0.851486 
50 -0.85158 -0.851568 -0.851557 -0.851546 -0.851536 -0.851525 -0.851515 -0.851505 -0.851496 -0.851486 
51 -0.85158 -0.851568 -0.851557 -0.851546 -0.851536 -0.851525 -0.851515 -0.851505 -0.851496 -0.851486 
52 -0.85158 -0.851568 -0.851557 -0.851546 -0.851536 -0.851525 -0.851515 -0.851505 -0.851496 -0.851486 
53 -0.85158 -0.851568 -0.851557 -0.851546 -0.851536 -0.851525 -0.851515 -0.851505 -0.851496 -0.851486 
54 -0.85158 -0.851568 -0.851557 -0.851546 -0.851536 -0.851525 -0.851515 -0.851505 -0.851496 -0.851486 
55 -0.85158 -0.851568 -0.851557 -0.851546 -0.851536 -0.851525 -0.851515 -0.851505 -0.851496 -0.851486 
56 -0.85158 -0.851568 -0.851557 -0.851546 -0.851536 -0.851525 -0.851515 -0.851505 -0.851496 -0.851486 
57 -0.85158 -0.851568 -0.851557 -0.851546 -0.851536 -0.851525 -0.851515 -0.851505 -0.851496 -0.851486 
58 -0.85158 -0.851568 -0.851557 -0.851546 -0.851536 -0.851525 -0.851515 -0.851505 -0.851496 -0.851486 
59 -0.85158 -0.851569 -0.851557 -0.851546 -0.851536 -0.851525 -0.851515 -0.851505 -0.851496 -0.851486 
60 -0.85158 -0.851568 -0.851557 -0.851546 -0.851535 -0.851525 -0.851515 -0.851505 -0.851496 -0.851486 
61 -0.85158 -0.851568 -0.851557 -0.851546 -0.851536 -0.851525 -0.851515 -0.851505 -0.851496 -0.851486 
62 -0.85158 -0.851568 -0.851557 -0.851546 -0.851536 -0.851525 -0.851515 -0.851505 -0.851496 -0.851486 
63 -0.85158 -0.851568 -0.851557 -0.851546 -0.851536 -0.851525 -0.851515 -0.851505 -0.851496 -0.851486 
64 -0.85158 -0.851568 -0.851557 -0.851546 -0.851536 -0.851525 -0.851515 -0.851505 -0.851496 -0.851486 
65 -0.85158 -0.851569 -0.851557 -0.851546 -0.851536 -0.851525 -0.851515 -0.851505 -0.851496 -0.851487 
66 -0.85158 -0.851568 -0.851557 -0.851546 -0.851536 -0.851525 -0.851515 -0.851505 -0.851496 -0.851486 
67 -0.85158 -0.851569 -0.851557 -0.851546 -0.851536 -0.851525 -0.851515 -0.851505 -0.851496 -0.851486 
68 -0.85158 -0.851569 -0.851557 -0.851546 -0.851536 -0.851525 -0.851515 -0.851505 -0.851496 -0.851486 
69 -0.85158 -0.851568 -0.851557 -0.851546 -0.851536 -0.851525 -0.851515 -0.851505 -0.851496 -0.851486 
70 -0.85158 -0.851568 -0.851557 -0.851546 -0.851536 -0.851525 -0.851515 -0.851505 -0.851496 -0.851486 
71 -0.85158 -0.851568 -0.851557 -0.851546 -0.851536 -0.851525 -0.851515 -0.851505 -0.851496 -0.851486 
72 -0.85158 -0.851569 -0.851557 -0.851546 -0.851536 -0.851525 -0.851515 -0.851505 -0.851496 -0.851486 
73 -0.85158 -0.851569 -0.851557 -0.851546 -0.851536 -0.851525 -0.851515 -0.851505 -0.851496 -0.851486 
74 -0.85158 -0.851568 -0.851557 -0.851546 -0.851535 -0.851525 -0.851515 -0.851505 -0.851496 -0.851486 
75 -0.851581 -0.851569 -0.851558 -0.851547 -0.851536 -0.851526 -0.851516 -0.851506 -0.851496 -0.851487 
76 -0.85158 -0.851568 -0.851557 -0.851546 -0.851536 -0.851525 -0.851515 -0.851505 -0.851496 -0.851486 
77 -0.85158 -0.851569 -0.851557 -0.851546 -0.851536 -0.851525 -0.851515 -0.851505 -0.851496 -0.851486 
78 -0.85158 -0.851568 -0.851557 -0.851546 -0.851536 -0.851525 -0.851515 -0.851505 -0.851496 -0.851486 
79 -0.851574 -0.851563 -0.851551 -0.85154 -0.85153 -0.851519 -0.851509 -0.851499 -0.85149 -0.851481 
80 -0.851582 -0.85157 -0.851559 -0.851548 -0.851537 -0.851527 -0.851517 -0.851507 -0.851497 -0.851488 
81 -0.851585 -0.851573 -0.851562 -0.851551 -0.85154 -0.851529 -0.851519 -0.851509 -0.8515 -0.85149 
82 -0.851573 -0.851561 -0.85155 -0.851539 -0.851528 -0.851518 -0.851508 -0.851498 -0.851489 -0.85148 
83 -0.851578 -0.851567 -0.851556 -0.851545 -0.851534 -0.851524 -0.851513 -0.851504 -0.851494 -0.851485 
84 -0.851577 -0.851566 -0.851554 -0.851543 -0.851533 -0.851522 -0.851512 -0.851502 -0.851493 -0.851484 
85 -0.851574 -0.851562 -0.851551 -0.85154 -0.851529 -0.851519 -0.851508 -0.851499 -0.851489 -0.85148 
86 -0.85158 -0.851568 -0.851557 -0.851546 -0.851535 -0.851525 -0.851515 -0.851505 -0.851496 -0.851486 
87 -0.85158 -0.851568 -0.851557 -0.851546 -0.851536 -0.851525 -0.851515 -0.851505 -0.851496 -0.851486 
88 -0.851582 -0.851571 -0.851559 -0.851548 -0.851538 -0.851527 -0.851517 -0.851508 -0.851498 -0.851489 
89 -0.85165 -0.851638 -0.851626 -0.851615 -0.851604 -0.851593 -0.851582 -0.851572 -0.851562 -0.851552 
90 -0.85158 -0.851569 -0.851557 -0.851546 -0.851536 -0.851525 -0.851515 -0.851505 -0.851496 -0.851486 
91 -0.851492 -0.851481 -0.851471 -0.851461 -0.851451 -0.851441 -0.851432 -0.851423 -0.851415 -0.851406 
92 -0.851643 -0.851631 -0.851619 -0.851607 -0.851596 -0.851585 -0.851574 -0.851563 -0.851553 -0.851543 
93 -0.851715 -0.851701 -0.851687 -0.851674 -0.851661 -0.851648 -0.851636 -0.851623 -0.851611 -0.8516 
94 -0.85158 -0.851568 -0.851557 -0.851546 -0.851536 -0.851525 -0.851515 -0.851505 -0.851496 -0.851486 
95 -0.851518 -0.851505 -0.851492 -0.851479 -0.851467 -0.851455 -0.851443 -0.851432 -0.851421 -0.85141 
96 -0.851507 -0.851494 -0.851481 -0.851469 -0.851457 -0.851445 -0.851434 -0.851423 -0.851413 -0.851403 
97 -0.851763 -0.851748 -0.851735 -0.851721 -0.851708 -0.851694 -0.851681 -0.851669 -0.851656 -0.851644 
98 -0.851581 -0.851569 -0.851558 -0.851547 -0.851536 -0.851526 -0.851516 -0.851506 -0.851497 -0.851487 
99 -0.85122 -0.851218 -0.851216 -0.851214 -0.851213 -0.851213 -0.851213 -0.851213 -0.851213 -0.851214 
100 -0.852459 -0.852442 -0.852426 -0.85241 -0.852393 -0.852377 -0.85236 -0.852344 -0.852327 -0.85231 
101 -0.85161 -0.851598 -0.851587 -0.851576 -0.851565 -0.851554 -0.851544 -0.851534 -0.851524 -0.851515 
102 -0.851538 -0.85154 -0.851541 -0.851543 -0.851544 -0.851546 -0.851548 -0.851551 -0.851553 -0.851555 
103 -0.851631 -0.851618 -0.851606 -0.851594 -0.851582 -0.85157 -0.851559 -0.851548 -0.851537 -0.851526 
104 -0.852213 -0.852204 -0.852195 -0.852187 -0.852178 -0.85217 -0.852162 -0.852153 -0.852145 -0.852137 
105 -0.85163 -0.851607 -0.851583 -0.851561 -0.851539 -0.851517 -0.851496 -0.851475 -0.851455 -0.851436 
106 -0.85155 -0.851539 -0.851527 -0.851517 -0.851506 -0.851496 -0.851486 -0.851476 -0.851467 -0.851458 
107 -0.85158 -0.851568 -0.851557 -0.851546 -0.851536 -0.851525 -0.851515 -0.851505 -0.851496 -0.851486 
108 -0.851628 -0.851621 -0.851615 -0.851609 -0.851603 -0.851597 -0.851591 -0.851586 -0.851581 -0.851576 
109 -0.850385 -0.850387 -0.85039 -0.850393 -0.850397 -0.850401 -0.850406 -0.850411 -0.850417 -0.850423 
110 -0.849736 -0.849711 -0.849688 -0.849665 -0.849643 -0.849622 -0.849603 -0.849584 -0.849567 -0.849551 
111 -0.850142 -0.850181 -0.850221 -0.850261 -0.850301 -0.850342 -0.850384 -0.850426 -0.850468 -0.85051 
112 -0.851751 -0.851737 -0.851724 -0.851711 -0.851699 -0.851686 -0.851674 -0.851662 -0.851651 -0.851639 
113 -0.85158 -0.851568 -0.851557 -0.851546 -0.851536 -0.851525 -0.851515 -0.851505 -0.851496 -0.851486 
114 -0.850664 -0.85067 -0.850676 -0.850682 -0.850689 -0.850695 -0.850702 -0.850708 -0.850715 -0.850722 
115 -0.85335 -0.853306 -0.853262 -0.853218 -0.853174 -0.853129 -0.853083 -0.853038 -0.852992 -0.852946 
116 -0.851236 -0.851244 -0.851252 -0.85126 -0.851268 -0.851276 -0.851284 -0.851293 -0.851301 -0.85131 
117 -0.849517 -0.849503 -0.849489 -0.849478 -0.849468 -0.849459 -0.849452 -0.849447 -0.849443 -0.849441 
118 -0.850118 -0.850096 -0.850074 -0.850052 -0.85003 -0.850008 -0.849986 -0.849964 -0.849942 -0.84992 
119 -0.84836 -0.848348 -0.848337 -0.848327 -0.848318 -0.848309 -0.848301 -0.848295 -0.848289 -0.848283 
120 -0.851555 -0.851524 -0.851492 -0.851462 -0.851432 -0.851403 -0.851374 -0.851347 -0.851319 -0.851293 
121 -0.85225 -0.852281 -0.852312 -0.852344 -0.852375 -0.852407 -0.85244 -0.852472 -0.852505 -0.852537 
122 -0.850531 -0.850475 -0.850419 -0.850364 -0.850308 -0.850252 -0.850196 -0.850141 -0.850085 -0.85003 
123 -0.848288 -0.848262 -0.848238 -0.848214 -0.848192 -0.848171 -0.848151 -0.848132 -0.848114 -0.848097 
124 -0.852876 -0.852894 -0.852912 -0.852931 -0.85295 -0.852969 -0.852988 -0.853008 -0.853028 -0.853048 
125 -0.852966 -0.852971 -0.852977 -0.852983 -0.85299 -0.852997 -0.853004 -0.853011 -0.853019 -0.853027 
126 -0.851578 -0.851566 -0.851555 -0.851544 -0.851533 -0.851523 -0.851513 -0.851503 -0.851493 -0.851484 
127 -0.851878 -0.851849 -0.851819 -0.851789 -0.851757 -0.851725 -0.851692 -0.851659 -0.851625 -0.85159 
128 -0.85475 -0.85477 -0.85479 -0.854811 -0.854831 -0.854851 -0.854872 -0.854892 -0.854912 -0.854933 
129 -0.851807 -0.851803 -0.8518 -0.851799 -0.8518 -0.851802 -0.851806 -0.851811 -0.851818 -0.851827 
130 -0.852011 -0.852004 -0.851998 -0.851994 -0.851992 -0.851992 -0.851993 -0.851995 -0.851999 -0.852005 
131 -0.849299 -0.849276 -0.849254 -0.849233 -0.849212 -0.849192 -0.849173 -0.849155 -0.849137 -0.84912 
132 -0.850935 -0.850895 -0.850854 -0.850812 -0.850769 -0.850725 -0.850681 -0.850635 -0.850589 -0.850543 
133 -0.851503 -0.851487 -0.851472 -0.851457 -0.851443 -0.85143 -0.851417 -0.851405 -0.851394 -0.851383 
134 -0.852678 -0.85268 -0.852682 -0.852683 -0.852683 -0.852683 -0.852682 -0.852681 -0.852679 -0.852676 
135 -0.851962 -0.851914 -0.851863 -0.851811 -0.851757 -0.851702 -0.851644 -0.851585 -0.851524 -0.851462 
136 -0.851587 -0.851575 -0.851564 -0.851552 -0.851541 -0.851531 -0.85152 -0.85151 -0.8515 -0.85149 
137 -0.850899 -0.850893 -0.850887 -0.850882 -0.850877 -0.850872 -0.850868 -0.850865 -0.850861 -0.850859 
138 -0.852096 -0.852088 -0.852082 -0.852078 -0.852075 -0.852073 -0.852074 -0.852076 -0.85208 -0.852085 
139 -0.849444 -0.849447 -0.84945 -0.849453 -0.849455 -0.849457 -0.849459 -0.84946 -0.849461 -0.849461 
140 -0.8505 -0.850482 -0.850463 -0.850445 -0.850426 -0.850408 -0.850389 -0.850371 -0.850352 -0.850334 
141 -0.850898 -0.850857 -0.850818 -0.850781 -0.850748 -0.850717 -0.850689 -0.850663 -0.850641 -0.850621 
142 -0.850346 -0.850351 -0.850354 -0.850355 -0.850355 -0.850354 -0.85035 -0.850346 -0.850339 -0.850331 
143 -0.855935 -0.85594 -0.855946 -0.855951 -0.855957 -0.855963 -0.855968 -0.855974 -0.85598 -0.855986 
144 -0.851511 -0.851534 -0.851559 -0.851586 -0.851613 -0.851642 -0.851672 -0.851702 -0.851734 -0.851766 
145 -0.85041 -0.850348 -0.850286 -0.850222 -0.850158 -0.850094 -0.850028 -0.849962 -0.849895 -0.849828 
146 -0.853042 -0.853054 -0.853068 -0.853084 -0.8531 -0.853119 -0.853139 -0.85316 -0.853183 -0.853208 
147 -0.855514 -0.855519 -0.855524 -0.855529 -0.855534 -0.855539 -0.855544 -0.855549 -0.855555 -0.85556 
148 -0.850669 -0.850616 -0.850563 -0.850509 -0.850456 -0.850402 -0.850349 -0.850296 -0.850242 -0.850189 
149 -0.853795 -0.853795 -0.853797 -0.8538 -0.853804 -0.85381 -0.853817 -0.853825 -0.853834 -0.853845 
150 -0.857437 -0.857419 -0.8574 -0.85738 -0.85736 -0.857339 -0.857318 -0.857296 -0.857273 -0.857249 
151 -0.850536 -0.850551 -0.850565 -0.850579 -0.850591 -0.850602 -0.850613 -0.850623 -0.850632 -0.850639 
152 -0.849067 -0.849032 -0.848997 -0.848963 -0.848928 -0.848895 -0.848861 -0.848828 -0.848796 -0.848764 
153 -0.850865 -0.850915 -0.850966 -0.851019 -0.851073 -0.851128 -0.851183 -0.85124 -0.851297 -0.851355 
154 -0.849537 -0.849577 -0.849618 -0.84966 -0.849702 -0.849746 -0.84979 -0.849834 -0.84988 -0.849926 
155 -0.848128 -0.848131 -0.848131 -0.848131 -0.848128 -0.848124 -0.848119 -0.848112 -0.848104 -0.848094 
156 -0.855462 -0.85548 -0.855501 -0.855525 -0.855551 -0.85558 -0.855612 -0.855646 -0.855682 -0.85572 
157 -0.857079 -0.857097 -0.857116 -0.857136 -0.857157 -0.857178 -0.8572 -0.857223 -0.857247 -0.857271 
158 -0.84798 -0.847944 -0.847907 -0.847868 -0.847828 -0.847787 -0.847746 -0.847703 -0.847659 -0.847614 
159 -0.849826 -0.849817 -0.849807 -0.849799 -0.84979 -0.849783 -0.849775 -0.849768 -0.849762 -0.849756 
160 -0.859353 -0.859322 -0.85929 -0.859256 -0.859219 -0.859181 -0.859141 -0.859099 -0.859055 -0.859009 
161 -0.837446 -0.837457 -0.83747 -0.837484 -0.8375 -0.837516 -0.837534 -0.837553 -0.837573 -0.837594 
162 -0.846019 -0.846034 -0.846051 -0.846068 -0.846085 -0.846104 -0.846123 -0.846144 -0.846165 -0.846187 
163 -0.842479 -0.842479 -0.842477 -0.842474 -0.84247 -0.842463 -0.842455 -0.842445 -0.842433 -0.84242 
164 -0.857223 -0.857225 -0.857229 -0.857236 -0.857247 -0.85726 -0.857277 -0.857297 -0.857321 -0.857347 
165 -0.860653 -0.860673 -0.860694 -0.860715 -0.860737 -0.860758 -0.860778 -0.860798 -0.860817 -0.860836 
166 -0.83587 -0.835866 -0.835863 -0.835861 -0.83586 -0.835858 -0.835858 -0.835858 -0.835858 -0.83586 
167 -0.852317 -0.852308 -0.852301 -0.852296 -0.852293 -0.852293 -0.852296 -0.852302 -0.852311 -0.852323 
168 -0.838436 -0.838436 -0.838437 -0.838439 -0.838442 -0.838447 -0.838454 -0.838461 -0.83847 -0.838481 
169 -0.862294 -0.862288 -0.86228 -0.862269 -0.862255 -0.862238 -0.862218 -0.862195 -0.86217 -0.862141 
170 -0.863088 -0.863077 -0.86307 -0.863065 -0.863063 -0.863065 -0.86307 -0.863079 -0.863092 -0.863108 
171 -0.864262 -0.864272 -0.864285 -0.864301 -0.864319 -0.86434 -0.864363 -0.864388 -0.864416 -0.864445 
172 -0.84174 -0.84175 -0.841761 -0.841774 -0.841788 -0.841805 -0.841822 -0.841841 -0.841862 -0.841883 
173 -0.85158 -0.851568 -0.851557 -0.851546 -0.851536 -0.851525 -0.851515 -0.851505 -0.851496 -0.851486 
174 -0.860261 -0.860261 -0.86026 -0.860258 -0.860256 -0.860254 -0.860251 -0.860248 -0.860245 -0.860241 
175 -0.87067 -0.870649 -0.870628 -0.870606 -0.870583 -0.87056 -0.870538 -0.870517 -0.870497 -0.870478 
176 -0.842299 -0.842278 -0.842259 -0.842242 -0.842226 -0.842213 -0.842202 -0.842193 -0.842186 -0.842181 
177 -0.833044 -0.833027 -0.833013 -0.833002 -0.832995 -0.832991 -0.832991 -0.832994 -0.833001 -0.833012 
178 -0.868545 -0.868529 -0.86851 -0.868489 -0.868467 -0.868442 -0.868416 -0.868389 -0.868363 -0.868336 
179 -0.85158 -0.851568 -0.851557 -0.851546 -0.851536 -0.851525 -0.851515 -0.851505 -0.851496 -0.851486 
180 -0.847552 -0.847558 -0.847561 -0.847563 -0.847563 -0.84756 -0.847555 -0.847548 -0.847539 -0.847528 
181 -0.8726 -0.872587 -0.872576 -0.872567 -0.872559 -0.872552 -0.872548 -0.872546 -0.872545 -0.872546 
182 -0.826467 -0.826424 -0.826382 -0.826343 -0.826305 -0.826269 -0.826236 -0.826206 -0.826178 -0.826153 
183 -0.834051 -0.834025 -0.834 -0.833975 -0.833951 -0.833928 -0.833906 -0.833886 -0.833867 -0.83385 
184 -0.833663 -0.83369 -0.833721 -0.833757 -0.833797 -0.833841 -0.833889 -0.833939 -0.833992 -0.834047 
185 -0.875167 -0.875131 -0.875094 -0.875058 -0.875022 -0.874988 -0.874955 -0.874925 -0.874898 -0.874873 
186 -0.885831 -0.885845 -0.885857 -0.885867 -0.885875 -0.88588 -0.885884 -0.885886 -0.885886 -0.885885 
187 -0.832306 -0.832244 -0.832184 -0.832128 -0.832076 -0.832028 -0.831985 -0.831948 -0.831915 -0.831889 
188 -0.859016 -0.859026 -0.859037 -0.859047 -0.859057 -0.859065 -0.859072 -0.859078 -0.859082 -0.859084 
189 -0.882548 -0.882579 -0.882608 -0.882636 -0.882661 -0.882684 -0.882705 -0.882722 -0.882735 -0.882745 
190 -0.850334 -0.850288 -0.850243 -0.850199 -0.850157 -0.850116 -0.850077 -0.850039 -0.850003 -0.849969 
191 -0.85158 -0.851568 -0.851557 -0.851546 -0.851536 -0.851525 -0.851515 -0.851505 -0.851496 -0.851486 
192 -0.805012 -0.804982 -0.804955 -0.80493 -0.804907 -0.804886 -0.804869 -0.804854 -0.804841 -0.804832 
193 -0.85158 -0.851568 -0.851557 -0.851546 -0.851536 -0.851525 -0.851515 -0.851505 -0.851496 -0.851486 
194 -0.862272 -0.862245 -0.862217 -0.862189 -0.86216 -0.86213 -0.862099 -0.862067 -0.862035 -0.862001 
195 -0.8482 -0.848214 -0.848232 -0.848255 -0.84828 -0.848307 -0.848336 -0.848365 -0.848395 -0.848424 
196 -0.847277 -0.847256 -0.847233 -0.847209 -0.847185 -0.847159 -0.847133 -0.847106 -0.847078 -0.847049 
197 -0.851107 -0.851089 -0.851072 -0.851057 -0.851042 -0.85103 -0.851018 -0.851007 -0.850998 -0.85099 
198 -0.85158 -0.851568 -0.851557 -0.851546 -0.851536 -0.851525 -0.851515 -0.851505 -0.851496 -0.851486 
199 -0.792638 -0.792577 -0.792514 -0.792451 -0.792387 -0.792324 -0.792261 -0.7922 -0.792141 -0.792085 
200 -0.827226 -0.827228 -0.827234 -0.827245 -0.827259 -0.827276 -0.827295 -0.827317 -0.827339 -0.827363 
201 -0.900583 -0.90061 -0.900636 -0.900663 -0.900689 -0.900713 -0.900735 -0.900755 -0.900772 -0.900786 
202 -0.85158 -0.851568 -0.851557 -0.851546 -0.851536 -0.851525 -0.851515 -0.851505 -0.851496 -0.851486 
203 -0.870281 -0.870254 -0.870229 -0.870207 -0.870186 -0.870167 -0.87015 -0.870135 -0.870121 -0.870109 
204 -0.85276 -0.852726 -0.852692 -0.852658 -0.852623 -0.852587 -0.852552 -0.852516 -0.85248 -0.852443 
205 -0.893706 -0.893726 -0.893744 -0.893761 -0.893775 -0.893787 -0.893797 -0.893805 -0.89381 -0.893813 
206 -0.85158 -0.851568 -0.851557 -0.851546 -0.851536 -0.851525 -0.851515 -0.851505 -0.851496 -0.851486 
207 -0.770342 -0.770307 -0.770274 -0.770245 -0.770218 -0.770194 -0.770174 -0.770157 -0.770144 -0.770133 
208 -0.852714 -0.85274 -0.85277 -0.852802 -0.852837 -0.852873 -0.85291 -0.852946 -0.85298 -0.853013 
209 -0.889194 -0.889195 -0.889196 -0.889197 -0.889197 -0.889196 -0.889195 -0.889194 -0.889192 -0.88919 
210 -0.910498 -0.910521 -0.910548 -0.910576 -0.910604 -0.910634 -0.910662 -0.91069 -0.910716 -0.910739 
211 -0.85158 -0.851568 -0.851557 -0.851546 -0.851536 -0.851525 -0.851515 -0.851505 -0.851496 -0.851486 
212 -0.85158 -0.851568 -0.851557 -0.851546 -0.851536 -0.851525 -0.851515 -0.851505 -0.851496 -0.851486 
213 -0.843571 -0.843596 -0.84362 -0.843644 -0.843668 -0.843691 -0.843714 -0.843736 -0.843757 -0.843777 
214 -0.757905 -0.75786 -0.757814 -0.757769 -0.757724 -0.757681 -0.757639 -0.757598 -0.75756 -0.757524 
215 -0.787097 -0.7871 -0.787111 -0.78713 -0.787156 -0.787187 -0.787224 -0.787265 -0.787309 -0.787355 
216 -0.794938 -0.794955 -0.794978 -0.795008 -0.795045 -0.795086 -0.795131 -0.79518 -0.795231 -0.795283 
217 -0.85651 -0.856465 -0.856419 -0.856372 -0.856324 -0.856275 -0.856225 -0.856173 -0.856121 -0.856068 
218 -0.834121 -0.834147 -0.834181 -0.834224 -0.834274 -0.83433 -0.83439 -0.834454 -0.834519 -0.834585 
219 -0.852136 -0.852123 -0.85211 -0.852098 -0.852086 -0.852074 -0.852062 -0.85205 -0.852039 -0.852028 
220 -0.943008 -0.943009 -0.943013 -0.943022 -0.943035 -0.94305 -0.943068 -0.943087 -0.943108 -0.943129 
221 -0.782323 -0.78231 -0.782304 -0.782304 -0.78231 -0.78232 -0.782335 -0.782353 -0.782375 -0.782399 
222 -0.725558 -0.72558 -0.725612 -0.725652 -0.725699 -0.725752 -0.72581 -0.725872 -0.725936 -0.726002 
223 -0.895754 -0.895761 -0.895776 -0.895798 -0.895826 -0.89586 -0.895898 -0.895941 -0.895986 -0.896033 
224 -0.917137 -0.917163 -0.917191 -0.917219 -0.917247 -0.917274 -0.917301 -0.917327 -0.917351 -0.917372 
225 -0.831104 -0.831121 -0.831139 -0.83116 -0.831183 -0.831208 -0.831234 -0.831263 -0.831294 -0.831328 
226 -0.798117 -0.798113 -0.798103 -0.798087 -0.798065 -0.798038 -0.798005 -0.797968 -0.797926 -0.797881 
227 -0.880149 -0.880141 -0.880144 -0.880157 -0.88018 -0.880211 -0.880249 -0.880294 -0.880345 -0.880399 
228 -0.820877 -0.820862 -0.820845 -0.820824 -0.8208 -0.820775 -0.820747 -0.820717 -0.820686 -0.820655 
229 -0.85158 -0.851568 -0.851557 -0.851546 -0.851536 -0.851525 -0.851515 -0.851505 -0.851496 -0.851486 
230 -0.85158 -0.851568 -0.851557 -0.851546 -0.851536 -0.851525 -0.851515 -0.851505 -0.851496 -0.851486 
231 -0.85158 -0.851568 -0.851557 -0.851546 -0.851535 -0.851525 -0.851515 -0.851505 -0.851496 -0.851486 
232 -1.08211 -1.08214 -1.08218 -1.08224 -1.0823 -1.08237 -1.08245 -1.08252 -1.0826 -1.08268 
233 -0.851592 -0.85158 -0.851568 -0.851557 -0.851546 -0.851535 -0.851525 -0.851515 -0.851505 -0.851495 
234 -0.977001 -0.977008 -0.97702 -0.977037 -0.977058 -0.977082 -0.977109 -0.977138 -0.977167 -0.977197 
235 -0.634179 -0.634152 -0.634139 -0.634141 -0.634157 -0.634186 -0.634228 -0.634281 -0.634345 -0.634418 
236 -0.908577 -0.908603 -0.908628 -0.908653 -0.908678 -0.908701 -0.908723 -0.908743 -0.90876 -0.908775 
237 -1.09767 -1.09768 -1.09771 -1.09774 -1.09779 -1.09784 -1.0979 -1.09796 -1.09803 -1.09809 
238 -0.852939 -0.852933 -0.852928 -0.852922 -0.852916 -0.85291 -0.852905 -0.852899 -0.852894 -0.852888 
239 -0.69465 -0.694616 -0.694598 -0.694595 -0.694607 -0.694633 -0.694672 -0.694724 -0.694788 -0.694862 
240 -0.758926 -0.758918 -0.758909 -0.758898 -0.758886 -0.758873 -0.758858 -0.758842 -0.758825 -0.758806 
241 -0.72185 -0.721821 -0.721795 -0.721774 -0.721756 -0.721742 -0.721732 -0.721725 -0.721721 -0.721719 
242 -0.851578 -0.851566 -0.851555 -0.851544 -0.851534 -0.851523 -0.851513 -0.851503 -0.851494 -0.851485 
243 -0.984169 -0.984175 -0.984186 -0.984199 -0.984216 -0.984234 -0.984255 -0.984276 -0.984298 -0.984319 
244 -1.11043 -1.11046 -1.1105 -1.11055 -1.11059 -1.11064 -1.1107 -1.11075 -1.11081 -1.11086 
245 -0.509217 -0.50916 -0.509112 -0.509073 -0.509044 -0.509025 -0.509016 -0.509017 -0.509027 -0.509047 
246 -1.04369 -1.04371 -1.04374 -1.04377 -1.04381 -1.04384 -1.04388 -1.04393 -1.04397 -1.04401 
247 -0.848132 -0.848102 -0.848073 -0.848044 -0.848015 -0.847987 -0.84796 -0.847933 -0.847907 -0.847881 
248 -0.85158 -0.851568 -0.851557 -0.851546 -0.851536 -0.851525 -0.851515 -0.851505 -0.851496 -0.851486 
249 -0.59759 -0.597554 -0.597527 -0.597507 -0.597495 -0.59749 -0.597492 -0.5975 -0.597514 -0.597535 
250 -0.812191 -0.812188 -0.812176 -0.812157 -0.81213 -0.812095 -0.812052 -0.812003 -0.811948 -0.811886 
251 -0.765679 -0.765682 -0.765677 -0.765663 -0.765641 -0.765612 -0.765575 -0.76553 -0.76548 -0.765424 
252 -0.733539 -0.733526 -0.733516 -0.73351 -0.733507 -0.733507 -0.733509 -0.733514 -0.733521 -0.733529 
253 -0.85158 -0.851569 -0.851557 -0.851546 -0.851536 -0.851525 -0.851515 -0.851505 -0.851496 -0.851486 
254 -0.88211 -0.882089 -0.882066 -0.882042 -0.882018 -0.881992 -0.881966 -0.881939 -0.881912 -0.881886 
255 -0.851401 -0.851395 -0.851389 -0.851384 -0.851379 -0.851375 -0.85137 -0.851366 -0.851362 -0.851359 
256 -0.860752 -0.86072 -0.860687 -0.860652 -0.860617 -0.860581 -0.860544 -0.860505 -0.860466 -0.860425 
257 -1.04382 -1.04383 -1.04384 -1.04385 -1.04386 -1.04388 -1.0439 -1.04392 -1.04394 -1.04396 
258 -0.824035 -0.824036 -0.824034 -0.824029 -0.824023 -0.824014 -0.824004 -0.823994 -0.823982 -0.82397 
259 -0.871536 -0.871497 -0.871459 -0.871422 -0.871386 -0.871351 -0.871318 -0.871287 -0.871258 -0.871231 
260 -0.620945 -0.62091 -0.620875 -0.62084 -0.620807 -0.620775 -0.620745 -0.620718 -0.620692 -0.62067 
261 -0.99171 -0.991714 -0.991722 -0.991732 -0.991745 -0.991759 -0.991775 -0.991791 -0.991808 -0.991823 
262 -1.02414 -1.02415 -1.02415 -1.02416 -1.02417 -1.02418 -1.02419 -1.0242 -1.02421 -1.02422 
263 -0.851619 -0.851609 -0.851599 -0.851589 -0.851579 -0.85157 -0.851561 -0.851552 -0.851543 -0.851535 
264 -0.835933 -0.835983 -0.836035 -0.836089 -0.836146 -0.836205 -0.836265 -0.836328 -0.836393 -0.836459 
265 -0.706494 -0.706479 -0.706464 -0.70645 -0.706436 -0.706421 -0.706407 -0.706393 -0.706378 -0.706363 
266 -0.665476 -0.665435 -0.665396 -0.66536 -0.665327 -0.665298 -0.665273 -0.665252 -0.665235 -0.665221 
267 -0.909459 -0.909465 -0.90947 -0.909474 -0.909477 -0.909478 -0.909478 -0.909476 -0.909473 -0.909467 
268 -0.843944 -0.843992 -0.844039 -0.844084 -0.844129 -0.844172 -0.844216 -0.844258 -0.844301 -0.844343 
269 -0.851579 -0.851568 -0.851557 -0.851546 -0.851535 -0.851525 -0.851514 -0.851505 -0.851495 -0.851486 
270 -1.00506 -1.00505 -1.00505 -1.00504 -1.00504 -1.00504 -1.00504 -1.00503 -1.00503 -1.00503 
271 -0.965198 -0.965201 -0.965206 -0.965211 -0.965218 -0.965225 -0.965232 -0.965238 -0.965243 -0.965247 
272 -0.688137 -0.688165 -0.688188 -0.688207 -0.688221 -0.68823 -0.688234 -0.688232 -0.688224 -0.68821 
273 -0.772052 -0.772102 -0.772146 -0.772182 -0.772209 -0.772228 -0.772237 -0.772236 -0.772224 -0.772203 
274 -0.73059 -0.730594 -0.730596 -0.730597 -0.730596 -0.730594 -0.73059 -0.730584 -0.730575 -0.730565 
275 -0.851497 -0.851484 -0.85147 -0.851457 -0.851443 -0.85143 -0.851416 -0.851403 -0.851389 -0.851376 
276 -0.977096 -0.977096 -0.977096 -0.977096 -0.977097 -0.977098 -0.977098 -0.977097 -0.977096 -0.977093 
277 -0.85158 -0.851568 -0.851557 -0.851546 -0.851536 -0.851525 -0.851515 -0.851505 -0.851496 -0.851486 
278 -0.711932 -0.711916 -0.711897 -0.711875 -0.71185 -0.711823 -0.711795 -0.711765 -0.711733 -0.711702 
279 -0.762783 -0.762797 -0.762806 -0.76281 -0.762807 -0.762798 -0.762783 -0.762761 -0.762732 -0.762697 
280 -0.936432 -0.936423 -0.936415 -0.936406 -0.936398 -0.936388 -0.936378 -0.936367 -0.936355 -0.936341 
281 -0.825509 -0.825522 -0.825537 -0.825556 -0.825575 -0.825594 -0.825612 -0.825628 -0.825641 -0.82565 
282 -0.939476 -0.939465 -0.939453 -0.939441 -0.939427 -0.939412 -0.939397 -0.939381 -0.939363 -0.939345 
283 -0.895513 -0.8955 -0.895485 -0.895469 -0.895451 -0.895432 -0.895412 -0.89539 -0.895366 -0.895342 
284 -0.801422 -0.801455 -0.801487 -0.801516 -0.801541 -0.801561 -0.801575 -0.801582 -0.801581 -0.801572 
285 -0.743408 -0.743503 -0.743609 -0.743723 -0.743843 -0.743967 -0.744092 -0.744216 -0.744337 -0.744451 
286 -0.85158 -0.851568 -0.851557 -0.851546 -0.851536 -0.851525 -0.851515 -0.851505 -0.851496 -0.851486 
287 -0.773603 -0.773652 -0.773709 -0.773773 -0.773843 -0.773918 -0.773998 -0.774082 -0.774169 -0.774257 
288 -0.926642 -0.926631 -0.926619 -0.926606 -0.926591 -0.926576 -0.92656 -0.926543 -0.926524 -0.926504 