VARIABLES = "Cell" "Mode 0" "Mode 1" "Mode 2" "Mode 3" "Mode 4" "Mode 5" "Mode 6" "Mode 7" "Mode 8" "Mode 9" 
ZONE T = Iteration139
0 -0.850083 -0.850112 -0.850141 -0.850171 -0.850201 -0.850231 -0.85026 -0.850289 -0.850316 -0.850343 
1 -0.850083 -0.850112 -0.850141 -0.850171 -0.850201 -0.850231 -0.85026 -0.850289 -0.850316 -0.850343 
2 -0.850083 -0.850112 -0.850141 -0.850171 -0.850201 -0.850231 -0.85026 -0.850289 -0.850316 -0.850343 
3 -0.850083 -0.850112 -0.850141 -0.850171 -0.850201 -0.850231 -0.85026 -0.850289 -0.850316 -0.850343 
4 -0.850083 -0.850112 -0.850141 -0.850171 -0.850201 -0.850231 -0.85026 -0.850289 -0.850316 -0.850343 
5 -0.850083 -0.850112 -0.850141 -0.850171 -0.850201 -0.850231 -0.85026 -0.850289 -0.850316 -0.850343 
6 -0.850083 -0.850112 -0.850141 -0.850171 -0.850201 -0.850231 -0.85026 -0.850289 -0.850316 -0.850343 
7 -0.850083 -0.850112 -0.850141 -0.850171 -0.850201 -0.850231 -0.85026 -0.850289 -0.850316 -0.850343 
8 -0.850083 -0.850112 -0.850141 -0.850171 -0.850201 -0.850231 -0.85026 -0.850289 -0.850316 -0.850343 
9 -0.850083 -0.850112 -0.850141 -0.850171 -0.850201 -0.850231 -0.85026 -0.850289 -0.850316 -0.850343 
10 -0.850083 -0.850112 -0.850141 -0.850171 -0.850201 -0.850231 -0.85026 -0.850289 -0.850316 -0.850343 
11 -0.850083 -0.850112 -0.850141 -0.850171 -0.850201 -0.850231 -0.85026 -0.850289 -0.850316 -0.850343 
12 -0.850083 -0.850112 -0.850141 -0.850171 -0.850201 -0.850231 -0.85026 -0.850289 -0.850316 -0.850343 
13 -0.850083 -0.850112 -0.850141 -0.850171 -0.850201 -0.850231 -0.85026 -0.850289 -0.850316 -0.850343 
14 -0.850083 -0.850112 -0.850141 -0.850171 -0.850201 -0.850231 -0.85026 -0.850289 -0.850316 -0.850343 
15 -0.850083 -0.850112 -0.850141 -0.850171 -0.850201 -0.850231 -0.85026 -0.850289 -0.850316 -0.850343 
16 -0.850083 -0.850112 -0.850141 -0.850171 -0.850201 -0.850231 -0.85026 -0.850289 -0.850316 -0.850343 
17 -0.850083 -0.850112 -0.850141 -0.850171 -0.850201 -0.850231 -0.85026 -0.850289 -0.850316 -0.850343 
18 -0.850083 -0.850112 -0.850141 -0.850171 -0.850201 -0.850231 -0.85026 -0.850289 -0.850316 -0.850343 
19 -0.850083 -0.850112 -0.850141 -0.850171 -0.850201 -0.850231 -0.85026 -0.850289 -0.850316 -0.850343 
20 -0.850083 -0.850112 -0.850141 -0.850171 -0.850201 -0.850231 -0.85026 -0.850289 -0.850316 -0.850343 
21 -0.850083 -0.850112 -0.850141 -0.850171 -0.850201 -0.850231 -0.85026 -0.850289 -0.850316 -0.850343 
22 -0.850083 -0.850112 -0.850141 -0.850171 -0.850201 -0.850231 -0.85026 -0.850289 -0.850316 -0.850343 
23 -0.850083 -0.850112 -0.850141 -0.850171 -0.850201 -0.850231 -0.85026 -0.850289 -0.850316 -0.850343 
24 -0.850083 -0.850112 -0.850141 -0.850171 -0.850201 -0.850231 -0.85026 -0.850289 -0.850316 -0.850343 
25 -0.850083 -0.850112 -0.850141 -0.850171 -0.850201 -0.850231 -0.85026 -0.850289 -0.850316 -0.850343 
26 -0.850083 -0.850112 -0.850141 -0.850171 -0.850201 -0.850231 -0.85026 -0.850289 -0.850316 -0.850343 
27 -0.850083 -0.850112 -0.850141 -0.850171 -0.850201 -0.850231 -0.85026 -0.850289 -0.850316 -0.850343 
28 -0.850083 -0.850112 -0.850141 -0.850171 -0.850201 -0.850231 -0.85026 -0.850289 -0.850316 -0.850343 
29 -0.850083 -0.850112 -0.850141 -0.850171 -0.850201 -0.850231 -0.85026 -0.850289 -0.850316 -0.850343 
30 -0.850083 -0.850112 -0.850141 -0.850171 -0.850201 -0.850231 -0.85026 -0.850289 -0.850316 -0.850343 
31 -0.850083 -0.850112 -0.850141 -0.850171 -0.850201 -0.850231 -0.85026 -0.850289 -0.850316 -0.850343 
32 -0.850083 -0.850112 -0.850141 -0.850171 -0.850201 -0.850231 -0.85026 -0.850289 -0.850316 -0.850343 
33 -0.850083 -0.850112 -0.850141 -0.850171 -0.850201 -0.850231 -0.85026 -0.850289 -0.850316 -0.850343 
34 -0.850083 -0.850112 -0.850141 -0.850171 -0.850201 -0.850231 -0.85026 -0.850289 -0.850316 -0.850343 
35 -0.850083 -0.850112 -0.850141 -0.850171 -0.850201 -0.850231 -0.85026 -0.850289 -0.850316 -0.850343 
36 -0.850083 -0.850112 -0.850141 -0.850171 -0.850201 -0.850231 -0.85026 -0.850289 -0.850316 -0.850343 
37 -0.850083 -0.850112 -0.850141 -0.850171 -0.850201 -0.850231 -0.85026 -0.850289 -0.850316 -0.850343 
38 -0.850083 -0.850112 -0.850141 -0.850171 -0.850201 -0.850231 -0.85026 -0.850289 -0.850316 -0.850343 
39 -0.850083 -0.850112 -0.850141 -0.850171 -0.850201 -0.850231 -0.85026 -0.850289 -0.850316 -0.850343 
40 -0.850083 -0.850112 -0.850141 -0.850171 -0.850201 -0.850231 -0.85026 -0.850289 -0.850316 -0.850343 
41 -0.850083 -0.850112 -0.850141 -0.850171 -0.850201 -0.850231 -0.85026 -0.850289 -0.850316 -0.850343 
42 -0.850083 -0.850112 -0.850141 -0.850171 -0.850201 -0.850231 -0.85026 -0.850289 -0.850316 -0.850343 
43 -0.850083 -0.850112 -0.850141 -0.850171 -0.850201 -0.850231 -0.85026 -0.850289 -0.850316 -0.850343 
44 -0.850083 -0.850112 -0.850141 -0.850171 -0.850201 -0.850231 -0.85026 -0.850289 -0.850316 -0.850343 
45 -0.850083 -0.850112 -0.850141 -0.850171 -0.850201 -0.850231 -0.85026 -0.850289 -0.850316 -0.850343 
46 -0.850083 -0.850112 -0.850141 -0.850171 -0.850201 -0.850231 -0.85026 -0.850289 -0.850316 -0.850343 
47 -0.850083 -0.850112 -0.850141 -0.850171 -0.850201 -0.850231 -0.85026 -0.850289 -0.850316 -0.850343 
48 -0.850083 -0.850112 -0.850141 -0.850171 -0.850201 -0.850231 -0.85026 -0.850289 -0.850316 -0.850343 
49 -0.850083 -0.850112 -0.850141 -0.850171 -0.850201 -0.850231 -0.85026 -0.850289 -0.850316 -0.850343 
50 -0.850083 -0.850112 -0.850141 -0.850171 -0.850201 -0.850231 -0.85026 -0.850289 -0.850316 -0.850343 
51 -0.850083 -0.850112 -0.850141 -0.850171 -0.850201 -0.850231 -0.85026 -0.850289 -0.850316 -0.850343 
52 -0.850083 -0.850112 -0.850141 -0.850171 -0.850201 -0.850231 -0.85026 -0.850289 -0.850316 -0.850343 
53 -0.850083 -0.850112 -0.850141 -0.850171 -0.850201 -0.850231 -0.85026 -0.850289 -0.850316 -0.850343 
54 -0.850083 -0.850112 -0.850141 -0.850171 -0.850201 -0.850231 -0.85026 -0.850289 -0.850316 -0.850343 
55 -0.850083 -0.850112 -0.850141 -0.850171 -0.850201 -0.850231 -0.85026 -0.850289 -0.850316 -0.850343 
56 -0.850083 -0.850112 -0.850141 -0.850171 -0.850201 -0.850231 -0.85026 -0.850289 -0.850316 -0.850343 
57 -0.850083 -0.850112 -0.850141 -0.850171 -0.850201 -0.850231 -0.85026 -0.850289 -0.850316 -0.850343 
58 -0.850083 -0.850112 -0.850141 -0.850171 -0.850201 -0.850231 -0.85026 -0.850289 -0.850316 -0.850343 
59 -0.850083 -0.850112 -0.850141 -0.850171 -0.850201 -0.850231 -0.85026 -0.850289 -0.850316 -0.850343 
60 -0.850083 -0.850112 -0.850141 -0.850171 -0.850201 -0.850231 -0.85026 -0.850289 -0.850316 -0.850343 
61 -0.850083 -0.850112 -0.850141 -0.850171 -0.850201 -0.850231 -0.85026 -0.850289 -0.850316 -0.850343 
62 -0.850083 -0.850112 -0.850141 -0.850171 -0.850201 -0.850231 -0.85026 -0.850289 -0.850316 -0.850343 
63 -0.850083 -0.850112 -0.850141 -0.850171 -0.850201 -0.850231 -0.85026 -0.850289 -0.850316 -0.850343 
64 -0.850083 -0.850112 -0.850141 -0.850171 -0.850201 -0.850231 -0.85026 -0.850289 -0.850316 -0.850343 
65 -0.850083 -0.850112 -0.850141 -0.850171 -0.850201 -0.850231 -0.85026 -0.850289 -0.850316 -0.850343 
66 -0.850083 -0.850112 -0.850141 -0.850171 -0.850201 -0.850231 -0.85026 -0.850289 -0.850316 -0.850343 
67 -0.850083 -0.850112 -0.850141 -0.850171 -0.850201 -0.850231 -0.85026 -0.850289 -0.850316 -0.850343 
68 -0.850083 -0.850112 -0.850141 -0.850171 -0.850201 -0.850231 -0.85026 -0.850289 -0.850316 -0.850343 
69 -0.850083 -0.850112 -0.850141 -0.850171 -0.850201 -0.850231 -0.85026 -0.850289 -0.850316 -0.850343 
70 -0.850083 -0.850112 -0.850141 -0.850171 -0.850201 -0.850231 -0.85026 -0.850289 -0.850316 -0.850343 
71 -0.850083 -0.850112 -0.850141 -0.850171 -0.850201 -0.850231 -0.85026 -0.850289 -0.850316 -0.850343 
72 -0.850083 -0.850112 -0.850141 -0.850171 -0.850201 -0.850231 -0.85026 -0.850289 -0.850316 -0.850343 
73 -0.850083 -0.850112 -0.850141 -0.850171 -0.850201 -0.850231 -0.85026 -0.850289 -0.850316 -0.850343 
74 -0.850083 -0.850112 -0.850141 -0.850171 -0.850201 -0.850231 -0.85026 -0.850289 -0.850316 -0.850343 
75 -0.850083 -0.850112 -0.850141 -0.850171 -0.850201 -0.850231 -0.85026 -0.850289 -0.850316 -0.850343 
76 -0.850083 -0.850112 -0.850141 -0.850171 -0.850201 -0.850231 -0.85026 -0.850289 -0.850316 -0.850343 
77 -0.850083 -0.850112 -0.850141 -0.850171 -0.850201 -0.850231 -0.85026 -0.850289 -0.850316 -0.850343 
78 -0.850083 -0.850112 -0.850141 -0.850171 -0.850201 -0.850231 -0.85026 -0.850289 -0.850316 -0.850343 
79 -0.850083 -0.850112 -0.850141 -0.850171 -0.850201 -0.850231 -0.85026 -0.850289 -0.850316 -0.850343 
80 -0.850083 -0.850112 -0.850141 -0.850171 -0.850201 -0.850231 -0.85026 -0.850289 -0.850316 -0.850343 
81 -0.850083 -0.850112 -0.850141 -0.850171 -0.850201 -0.850231 -0.85026 -0.850289 -0.850316 -0.850343 
82 -0.850083 -0.850112 -0.850141 -0.850171 -0.850201 -0.850231 -0.85026 -0.850289 -0.850316 -0.850343 
83 -0.850083 -0.850112 -0.850141 -0.850171 -0.850201 -0.850231 -0.85026 -0.850289 -0.850316 -0.850343 
84 -0.850083 -0.850112 -0.850141 -0.850171 -0.850201 -0.850231 -0.85026 -0.850289 -0.850316 -0.850343 
85 -0.850083 -0.850112 -0.850141 -0.850171 -0.850201 -0.850231 -0.85026 -0.850289 -0.850316 -0.850343 
86 -0.850083 -0.850112 -0.850141 -0.850171 -0.850201 -0.850231 -0.85026 -0.850289 -0.850316 -0.850343 
87 -0.850083 -0.850112 -0.850141 -0.850171 -0.850201 -0.850231 -0.85026 -0.850289 -0.850316 -0.850343 
88 -0.850083 -0.850112 -0.850141 -0.850171 -0.850201 -0.850231 -0.85026 -0.850289 -0.850316 -0.850343 
89 -0.850083 -0.850112 -0.850142 -0.850172 -0.850202 -0.850231 -0.850261 -0.850289 -0.850317 -0.850343 
90 -0.850083 -0.850112 -0.850141 -0.850171 -0.850201 -0.850231 -0.85026 -0.850289 -0.850316 -0.850343 
91 -0.850083 -0.850112 -0.850142 -0.850171 -0.850201 -0.850231 -0.85026 -0.850289 -0.850316 -0.850343 
92 -0.850083 -0.850112 -0.850141 -0.850171 -0.850201 -0.850231 -0.85026 -0.850289 -0.850316 -0.850343 
93 -0.850083 -0.850112 -0.850142 -0.850172 -0.850202 -0.850231 -0.85026 -0.850289 -0.850317 -0.850343 
94 -0.850083 -0.850112 -0.850141 -0.850171 -0.850201 -0.850231 -0.85026 -0.850289 -0.850316 -0.850343 
95 -0.850085 -0.850114 -0.850144 -0.850173 -0.850203 -0.850233 -0.850262 -0.850291 -0.850318 -0.850344 
96 -0.850082 -0.850111 -0.850141 -0.850171 -0.850201 -0.850231 -0.85026 -0.850288 -0.850316 -0.850342 
97 -0.850083 -0.850112 -0.850142 -0.850172 -0.850201 -0.850231 -0.85026 -0.850289 -0.850316 -0.850343 
98 -0.850083 -0.850112 -0.850141 -0.850171 -0.850201 -0.850231 -0.85026 -0.850289 -0.850316 -0.850343 
99 -0.850082 -0.850112 -0.850142 -0.850172 -0.850202 -0.850232 -0.850262 -0.850291 -0.850319 -0.850345 
100 -0.850089 -0.850118 -0.850147 -0.850176 -0.850206 -0.850235 -0.850264 -0.850292 -0.850319 -0.850345 
101 -0.850081 -0.850111 -0.85014 -0.85017 -0.8502 -0.85023 -0.850259 -0.850288 -0.850315 -0.850342 
102 -0.850083 -0.850112 -0.850142 -0.850172 -0.850202 -0.850232 -0.850261 -0.85029 -0.850318 -0.850344 
103 -0.850083 -0.850112 -0.850141 -0.850171 -0.850201 -0.850231 -0.85026 -0.850289 -0.850316 -0.850343 
104 -0.850091 -0.85012 -0.850149 -0.850179 -0.850209 -0.850238 -0.850268 -0.850296 -0.850323 -0.850349 
105 -0.850079 -0.850107 -0.850137 -0.850166 -0.850196 -0.850226 -0.850255 -0.850283 -0.850311 -0.850337 
106 -0.850083 -0.850112 -0.850142 -0.850172 -0.850202 -0.850231 -0.850261 -0.850289 -0.850317 -0.850343 
107 -0.850083 -0.850112 -0.850141 -0.850171 -0.850201 -0.850231 -0.85026 -0.850289 -0.850316 -0.850343 
108 -0.850083 -0.850112 -0.850142 -0.850172 -0.850202 -0.850232 -0.850261 -0.850289 -0.850317 -0.850344 
109 -0.850079 -0.850108 -0.850138 -0.850168 -0.850198 -0.850228 -0.850257 -0.850286 -0.850314 -0.85034 
110 -0.849999 -0.85003 -0.850061 -0.850093 -0.850125 -0.850157 -0.850189 -0.85022 -0.85025 -0.850279 
111 -0.850067 -0.850098 -0.85013 -0.850162 -0.850194 -0.850226 -0.850257 -0.850287 -0.850316 -0.850344 
112 -0.850083 -0.850112 -0.850142 -0.850171 -0.850201 -0.850231 -0.85026 -0.850289 -0.850316 -0.850343 
113 -0.850083 -0.850112 -0.850141 -0.850171 -0.850201 -0.850231 -0.85026 -0.850289 -0.850316 -0.850343 
114 -0.850058 -0.850087 -0.850116 -0.850146 -0.850177 -0.850207 -0.850236 -0.850265 -0.850293 -0.85032 
115 -0.850152 -0.850176 -0.850201 -0.850225 -0.85025 -0.850275 -0.8503 -0.850323 -0.850346 -0.850368 
116 -0.850084 -0.850113 -0.850144 -0.850174 -0.850205 -0.850235 -0.850265 -0.850294 -0.850322 -0.850348 
117 -0.849917 -0.849957 -0.849998 -0.850038 -0.850079 -0.850119 -0.850159 -0.850198 -0.850235 -0.850271 
118 -0.850127 -0.850146 -0.850167 -0.850188 -0.85021 -0.850232 -0.850255 -0.850277 -0.850298 -0.850319 
119 -0.85003 -0.850052 -0.850075 -0.850099 -0.850124 -0.850148 -0.850173 -0.850198 -0.850222 -0.850245 
120 -0.849566 -0.849596 -0.849628 -0.849662 -0.849698 -0.849734 -0.849771 -0.849809 -0.849847 -0.849885 
121 -0.850772 -0.850804 -0.850835 -0.850864 -0.850891 -0.850916 -0.850939 -0.85096 -0.850977 -0.850992 
122 -0.850102 -0.85011 -0.850119 -0.850129 -0.850141 -0.850153 -0.850166 -0.85018 -0.850194 -0.850208 
123 -0.850225 -0.850252 -0.850278 -0.850306 -0.850333 -0.850359 -0.850385 -0.850411 -0.850435 -0.850458 
124 -0.849881 -0.849916 -0.849952 -0.849989 -0.850025 -0.850061 -0.850097 -0.850132 -0.850166 -0.850199 
125 -0.851802 -0.851799 -0.851794 -0.851786 -0.851775 -0.85176 -0.851743 -0.851722 -0.851698 -0.85167 
126 -0.850083 -0.850112 -0.850141 -0.850171 -0.850201 -0.850231 -0.85026 -0.850289 -0.850316 -0.850343 
127 -0.849327 -0.849396 -0.849466 -0.849538 -0.84961 -0.849683 -0.849756 -0.849829 -0.849901 -0.849972 
128 -0.849739 -0.849776 -0.849814 -0.849853 -0.849891 -0.849929 -0.849967 -0.850004 -0.85004 -0.850075 
129 -0.849227 -0.849229 -0.849235 -0.849245 -0.849259 -0.849276 -0.849296 -0.849318 -0.849343 -0.849371 
130 -0.851799 -0.851754 -0.851708 -0.851661 -0.851613 -0.851564 -0.851514 -0.851463 -0.85141 -0.851356 
131 -0.850835 -0.850874 -0.850911 -0.850947 -0.85098 -0.851011 -0.851039 -0.851065 -0.851088 -0.851108 
132 -0.850435 -0.850519 -0.8506 -0.850679 -0.850754 -0.850825 -0.850892 -0.850956 -0.851014 -0.851068 
133 -0.84897 -0.848933 -0.8489 -0.848871 -0.848845 -0.848823 -0.848803 -0.848787 -0.848774 -0.848765 
134 -0.850141 -0.850194 -0.850248 -0.850301 -0.850354 -0.850406 -0.850458 -0.850507 -0.850556 -0.850602 
135 -0.847733 -0.847836 -0.847942 -0.84805 -0.848161 -0.848273 -0.848386 -0.8485 -0.848614 -0.848729 
136 -0.850083 -0.850112 -0.850141 -0.850171 -0.850201 -0.850231 -0.85026 -0.850289 -0.850316 -0.850343 
137 -0.850071 -0.850101 -0.850131 -0.850161 -0.850192 -0.850222 -0.850251 -0.85028 -0.850309 -0.850335 
138 -0.853566 -0.853776 -0.853989 -0.854202 -0.854416 -0.85463 -0.854842 -0.855052 -0.855259 -0.855461 
139 -0.845382 -0.845275 -0.845168 -0.845062 -0.844956 -0.84485 -0.844746 -0.844643 -0.844542 -0.844443 
140 -0.850126 -0.850146 -0.850167 -0.850189 -0.850211 -0.850234 -0.850256 -0.850279 -0.8503 -0.850321 
141 -0.853792 -0.853767 -0.853739 -0.853707 -0.853672 -0.853632 -0.853588 -0.853538 -0.853484 -0.853423 
142 -0.844306 -0.844491 -0.844682 -0.844878 -0.845078 -0.845283 -0.845492 -0.845705 -0.84592 -0.846138 
143 -0.853994 -0.853921 -0.853846 -0.853769 -0.853689 -0.853607 -0.853522 -0.853435 -0.853345 -0.853252 
144 -0.849202 -0.849137 -0.849072 -0.849007 -0.848941 -0.848876 -0.848811 -0.848748 -0.848686 -0.848626 
145 -0.845825 -0.845987 -0.846152 -0.846319 -0.846489 -0.846659 -0.846831 -0.847004 -0.847177 -0.847349 
146 -0.856286 -0.856379 -0.856467 -0.856551 -0.856629 -0.856701 -0.856767 -0.856826 -0.856878 -0.856921 
147 -0.850828 -0.850739 -0.850655 -0.850574 -0.850497 -0.850424 -0.850355 -0.850289 -0.850226 -0.850166 
148 -0.850305 -0.850452 -0.850595 -0.850734 -0.850869 -0.850999 -0.851124 -0.851243 -0.851356 -0.851464 
149 -0.855166 -0.855258 -0.855353 -0.855452 -0.855553 -0.855656 -0.855761 -0.855868 -0.855975 -0.856083 
150 -0.860217 -0.860075 -0.859926 -0.859771 -0.859608 -0.859437 -0.85926 -0.859075 -0.858883 -0.858683 
151 -0.845056 -0.845095 -0.845135 -0.845175 -0.845216 -0.845258 -0.845299 -0.84534 -0.845381 -0.845421 
152 -0.850587 -0.850594 -0.850601 -0.850609 -0.850616 -0.850624 -0.85063 -0.850637 -0.850642 -0.850646 
153 -0.852869 -0.852957 -0.853037 -0.853111 -0.853178 -0.853237 -0.853288 -0.853331 -0.853365 -0.853391 
154 -0.847409 -0.84735 -0.847282 -0.847205 -0.84712 -0.847025 -0.846922 -0.846809 -0.846687 -0.846556 
155 -0.83663 -0.836562 -0.836502 -0.83645 -0.836406 -0.836369 -0.83634 -0.836318 -0.836305 -0.836299 
156 -0.856438 -0.856503 -0.856567 -0.856631 -0.856693 -0.856754 -0.856813 -0.85687 -0.856924 -0.856975 
157 -0.859584 -0.859787 -0.859998 -0.860215 -0.860437 -0.860664 -0.860896 -0.861131 -0.861369 -0.861609 
158 -0.834093 -0.834185 -0.834288 -0.834403 -0.834528 -0.834664 -0.834812 -0.834969 -0.835138 -0.835316 
159 -0.850057 -0.850086 -0.850115 -0.850144 -0.850174 -0.850204 -0.850233 -0.850262 -0.85029 -0.850317 
160 -0.861357 -0.861395 -0.861436 -0.861479 -0.861524 -0.861571 -0.861621 -0.861672 -0.861725 -0.86178 
161 -0.834216 -0.834166 -0.834112 -0.834055 -0.833995 -0.833931 -0.833864 -0.833793 -0.833719 -0.83364 
162 -0.848076 -0.848151 -0.848219 -0.84828 -0.848331 -0.848374 -0.848409 -0.848433 -0.848448 -0.848453 
163 -0.831697 -0.831546 -0.831403 -0.831268 -0.831141 -0.831021 -0.83091 -0.830806 -0.83071 -0.830622 
164 -0.857278 -0.857372 -0.857465 -0.857557 -0.857649 -0.857739 -0.857828 -0.857915 -0.858 -0.858083 
165 -0.860834 -0.861016 -0.861201 -0.861389 -0.861578 -0.861768 -0.861957 -0.862147 -0.862334 -0.86252 
166 -0.830026 -0.829925 -0.829825 -0.829728 -0.829634 -0.829542 -0.829452 -0.829365 -0.829281 -0.829198 
167 -0.853518 -0.853624 -0.853727 -0.853827 -0.853922 -0.854012 -0.854096 -0.854175 -0.854247 -0.854313 
168 -0.838578 -0.838609 -0.838634 -0.838653 -0.838664 -0.838669 -0.838666 -0.838655 -0.838636 -0.838608 
169 -0.86264 -0.862849 -0.863066 -0.863291 -0.863524 -0.863766 -0.864015 -0.864272 -0.864537 -0.864809 
170 -0.862115 -0.862218 -0.862326 -0.862439 -0.862558 -0.862682 -0.862812 -0.862945 -0.863083 -0.863224 
171 -0.862921 -0.863054 -0.863189 -0.863326 -0.863463 -0.863601 -0.863738 -0.863875 -0.864011 -0.864146 
172 -0.836218 -0.836173 -0.83613 -0.836088 -0.836048 -0.836009 -0.835972 -0.835935 -0.835898 -0.835862 
173 -0.850083 -0.850112 -0.850141 -0.850171 -0.850201 -0.850231 -0.85026 -0.850289 -0.850316 -0.850343 
174 -0.86185 -0.861858 -0.861854 -0.861839 -0.861811 -0.861771 -0.861719 -0.861655 -0.861579 -0.861492 
175 -0.870808 -0.870859 -0.870908 -0.870954 -0.870997 -0.871039 -0.871079 -0.871116 -0.871152 -0.871186 
176 -0.841384 -0.841363 -0.84134 -0.841315 -0.841289 -0.84126 -0.84123 -0.841197 -0.841162 -0.841125 
177 -0.83041 -0.830488 -0.830568 -0.83065 -0.830734 -0.830817 -0.8309 -0.830983 -0.831064 -0.831144 
178 -0.869616 -0.869609 -0.869593 -0.869566 -0.869531 -0.869487 -0.869435 -0.869376 -0.869309 -0.869236 
179 -0.850083 -0.850112 -0.850141 -0.850171 -0.850201 -0.850231 -0.85026 -0.850289 -0.850316 -0.850343 
180 -0.848142 -0.848036 -0.847918 -0.84779 -0.84765 -0.847501 -0.847342 -0.847174 -0.846998 -0.846816 
181 -0.871266 -0.871373 -0.871483 -0.871595 -0.87171 -0.871826 -0.871944 -0.872062 -0.87218 -0.872296 
182 -0.823402 -0.823456 -0.823519 -0.823589 -0.823668 -0.823754 -0.823848 -0.823947 -0.824053 -0.824163 
183 -0.833272 -0.833173 -0.83307 -0.832963 -0.832853 -0.832739 -0.832622 -0.832502 -0.832379 -0.832253 
184 -0.832171 -0.832247 -0.832323 -0.832398 -0.832472 -0.832545 -0.832615 -0.832682 -0.832747 -0.832807 
185 -0.874505 -0.874519 -0.874534 -0.874551 -0.874568 -0.874587 -0.874607 -0.874629 -0.874652 -0.874676 
186 -0.886609 -0.886501 -0.886376 -0.886236 -0.886079 -0.885908 -0.885723 -0.885526 -0.885317 -0.885098 
187 -0.830451 -0.83059 -0.830734 -0.830882 -0.831034 -0.831188 -0.831343 -0.831499 -0.831653 -0.831806 
188 -0.858499 -0.858295 -0.858079 -0.857853 -0.857619 -0.857377 -0.857128 -0.856875 -0.856619 -0.856362 
189 -0.882364 -0.88215 -0.88192 -0.881675 -0.881415 -0.881143 -0.88086 -0.880567 -0.880267 -0.879962 
190 -0.847615 -0.847725 -0.847835 -0.847946 -0.848057 -0.848168 -0.848278 -0.848388 -0.848497 -0.848604 
191 -0.850083 -0.850112 -0.850141 -0.850171 -0.850201 -0.850231 -0.85026 -0.850289 -0.850316 -0.850343 
192 -0.802769 -0.802629 -0.802489 -0.802351 -0.802216 -0.802084 -0.801956 -0.801833 -0.801716 -0.801607 
193 -0.850083 -0.850112 -0.850141 -0.850171 -0.850201 -0.850231 -0.85026 -0.850289 -0.850316 -0.850343 
194 -0.859069 -0.859257 -0.859454 -0.85966 -0.859874 -0.860095 -0.860323 -0.860557 -0.860797 -0.861041 
195 -0.845893 -0.845727 -0.84556 -0.845393 -0.845228 -0.845067 -0.844912 -0.844763 -0.844624 -0.844496 
196 -0.838966 -0.838854 -0.838744 -0.838634 -0.838526 -0.838419 -0.838313 -0.838208 -0.838104 -0.838002 
197 -0.849671 -0.849772 -0.849871 -0.849968 -0.850062 -0.850154 -0.850243 -0.850329 -0.850411 -0.850489 
198 -0.850083 -0.850112 -0.850141 -0.850171 -0.850201 -0.850231 -0.85026 -0.850289 -0.850316 -0.850343 
199 -0.78764 -0.787666 -0.787711 -0.787776 -0.787861 -0.787966 -0.788089 -0.788232 -0.788391 -0.788567 
200 -0.824581 -0.824442 -0.824305 -0.82417 -0.82404 -0.823916 -0.8238 -0.823693 -0.823598 -0.823515 
201 -0.900136 -0.899905 -0.899663 -0.899412 -0.899153 -0.898888 -0.89862 -0.898349 -0.898079 -0.897812 
202 -0.850083 -0.850112 -0.850141 -0.850171 -0.850201 -0.850231 -0.85026 -0.850289 -0.850316 -0.850343 
203 -0.86698 -0.867057 -0.867138 -0.867222 -0.867308 -0.867394 -0.867481 -0.867566 -0.867649 -0.867728 
204 -0.857045 -0.857126 -0.857201 -0.857271 -0.857334 -0.85739 -0.857439 -0.857481 -0.857513 -0.857538 
205 -0.893612 -0.893476 -0.893324 -0.893155 -0.892972 -0.892774 -0.892564 -0.892343 -0.892114 -0.891878 
206 -0.850083 -0.850112 -0.850141 -0.850171 -0.850201 -0.850231 -0.85026 -0.850289 -0.850316 -0.850343 
207 -0.766357 -0.76629 -0.766235 -0.766191 -0.766161 -0.766146 -0.766146 -0.766163 -0.766197 -0.766249 
208 -0.850319 -0.850168 -0.850022 -0.849882 -0.849752 -0.849633 -0.849527 -0.849436 -0.849363 -0.849309 
209 -0.888432 -0.888364 -0.888286 -0.888198 -0.888103 -0.888 -0.887891 -0.887778 -0.887661 -0.887543 
210 -0.908531 -0.908365 -0.9082 -0.90804 -0.907884 -0.907736 -0.907598 -0.90747 -0.907355 -0.907255 
211 -0.850083 -0.850112 -0.850141 -0.850171 -0.850201 -0.850231 -0.85026 -0.850289 -0.850316 -0.850343 
212 -0.850083 -0.850112 -0.850141 -0.850171 -0.850201 -0.850231 -0.85026 -0.850289 -0.850316 -0.850343 
213 -0.84036 -0.840154 -0.839939 -0.839715 -0.839483 -0.83924 -0.838988 -0.838725 -0.838452 -0.838167 
214 -0.75285 -0.752845 -0.752858 -0.752891 -0.752944 -0.753018 -0.753114 -0.75323 -0.753368 -0.753527 
215 -0.783155 -0.783109 -0.783071 -0.783043 -0.783026 -0.783023 -0.783034 -0.783063 -0.78311 -0.783179 
216 -0.793393 -0.793306 -0.793219 -0.793134 -0.793053 -0.792977 -0.792908 -0.792848 -0.7928 -0.792766 
217 -0.861918 -0.862026 -0.862131 -0.862231 -0.862327 -0.862417 -0.862501 -0.862578 -0.862647 -0.862708 
218 -0.831479 -0.831452 -0.831434 -0.83143 -0.83144 -0.831466 -0.831512 -0.831579 -0.831668 -0.831783 
219 -0.850065 -0.850094 -0.850123 -0.850153 -0.850183 -0.850212 -0.850241 -0.85027 -0.850297 -0.850324 
220 -0.941996 -0.941848 -0.941698 -0.941548 -0.941398 -0.941251 -0.941106 -0.940966 -0.940832 -0.940705 
221 -0.777477 -0.777481 -0.777497 -0.777527 -0.777572 -0.777634 -0.777715 -0.777815 -0.777937 -0.77808 
222 -0.721668 -0.721658 -0.721664 -0.721687 -0.721731 -0.721796 -0.721887 -0.722004 -0.722149 -0.722325 
223 -0.894592 -0.894534 -0.894477 -0.894421 -0.894367 -0.894316 -0.89427 -0.894231 -0.894198 -0.894173 
224 -0.916828 -0.916646 -0.916452 -0.916246 -0.916029 -0.915801 -0.915565 -0.915322 -0.915073 -0.914821 
225 -0.831704 -0.831813 -0.83192 -0.832023 -0.832121 -0.832212 -0.832295 -0.832368 -0.832431 -0.832482 
226 -0.79486 -0.794949 -0.795063 -0.7952 -0.795362 -0.795547 -0.795755 -0.795983 -0.796232 -0.796498 
227 -0.877643 -0.877676 -0.877714 -0.877758 -0.87781 -0.877871 -0.877941 -0.878023 -0.878117 -0.878223 
228 -0.819851 -0.820019 -0.820199 -0.82039 -0.82059 -0.820798 -0.821011 -0.821228 -0.821447 -0.821665 
229 -0.850083 -0.850112 -0.850141 -0.850171 -0.850201 -0.850231 -0.85026 -0.850289 -0.850316 -0.850343 
230 -0.850083 -0.850112 -0.850141 -0.850171 -0.850201 -0.850231 -0.85026 -0.850289 -0.850316 -0.850343 
231 -0.850083 -0.850112 -0.850141 -0.850171 -0.850201 -0.850231 -0.85026 -0.850289 -0.850316 -0.850343 
232 -1.08185 -1.08183 -1.08183 -1.08183 -1.08186 -1.0819 -1.08196 -1.08204 -1.08214 -1.08226 
233 -0.850083 -0.850112 -0.850141 -0.850171 -0.850201 -0.850231 -0.85026 -0.850289 -0.850316 -0.850343 
234 -0.976082 -0.975982 -0.975882 -0.975783 -0.975687 -0.975594 -0.975504 -0.975419 -0.975339 -0.975266 
235 -0.630201 -0.630365 -0.630535 -0.630712 -0.630898 -0.631092 -0.631297 -0.631513 -0.631741 -0.631982 
236 -0.908605 -0.908428 -0.908234 -0.908024 -0.907799 -0.90756 -0.907308 -0.907044 -0.906771 -0.90649 
237 -1.09763 -1.09765 -1.09768 -1.09772 -1.09777 -1.09784 -1.09793 -1.09803 -1.09816 -1.0983 
238 -0.850154 -0.850179 -0.850204 -0.85023 -0.850256 -0.850282 -0.850307 -0.850332 -0.850355 -0.850378 
239 -0.692212 -0.692413 -0.692615 -0.692817 -0.69302 -0.693224 -0.693429 -0.693636 -0.693845 -0.694057 
240 -0.753586 -0.753637 -0.753708 -0.753802 -0.753919 -0.754059 -0.754223 -0.75441 -0.754622 -0.754856 
241 -0.716202 -0.716264 -0.716341 -0.716436 -0.716548 -0.716679 -0.71683 -0.717001 -0.717194 -0.717408 
242 -0.850083 -0.850112 -0.850141 -0.850171 -0.850201 -0.850231 -0.85026 -0.850289 -0.850316 -0.850343 
243 -0.983111 -0.983003 -0.982893 -0.982781 -0.982668 -0.982554 -0.98244 -0.982326 -0.982214 -0.982103 
244 -1.11214 -1.11213 -1.11213 -1.11213 -1.11213 -1.11215 -1.11217 -1.11219 -1.11223 -1.11227 
245 -0.504974 -0.505192 -0.505418 -0.505654 -0.505898 -0.506151 -0.506414 -0.506686 -0.506969 -0.507263 
246 -1.04512 -1.04508 -1.04504 -1.04499 -1.04495 -1.04491 -1.04486 -1.04482 -1.04478 -1.04473 
247 -0.836341 -0.83635 -0.83637 -0.836402 -0.836444 -0.836497 -0.836561 -0.836635 -0.83672 -0.836815 
248 -0.850083 -0.850112 -0.850141 -0.850171 -0.850201 -0.850231 -0.85026 -0.850289 -0.850316 -0.850343 
249 -0.592568 -0.592724 -0.592894 -0.593079 -0.59328 -0.593497 -0.593732 -0.593985 -0.594256 -0.594547 
250 -0.808497 -0.808631 -0.808787 -0.808965 -0.809162 -0.809379 -0.809612 -0.809859 -0.810119 -0.810389 
251 -0.761353 -0.761449 -0.761571 -0.76172 -0.761896 -0.762099 -0.762328 -0.762583 -0.762861 -0.763163 
252 -0.728392 -0.728481 -0.728585 -0.728705 -0.728841 -0.728995 -0.729166 -0.729357 -0.729566 -0.729795 
253 -0.850083 -0.850112 -0.850141 -0.850171 -0.850201 -0.850231 -0.85026 -0.850289 -0.850316 -0.850343 
254 -0.879743 -0.87964 -0.879533 -0.879425 -0.879316 -0.879207 -0.879099 -0.878994 -0.878892 -0.878796 
255 -0.850083 -0.850112 -0.850141 -0.850171 -0.850201 -0.850231 -0.85026 -0.850289 -0.850317 -0.850343 
256 -0.861942 -0.862132 -0.862327 -0.862527 -0.86273 -0.862938 -0.863149 -0.863364 -0.863583 -0.863805 
257 -1.04548 -1.04552 -1.04555 -1.04557 -1.04558 -1.04559 -1.04559 -1.04559 -1.04557 -1.04555 
258 -0.824112 -0.824308 -0.824507 -0.82471 -0.824912 -0.825112 -0.825307 -0.825496 -0.825675 -0.825844 
259 -0.866634 -0.866677 -0.866729 -0.866787 -0.866853 -0.866926 -0.867006 -0.867093 -0.867185 -0.867283 
260 -0.616778 -0.616915 -0.617065 -0.617227 -0.617402 -0.617589 -0.617788 -0.617999 -0.618222 -0.618458 
261 -0.990969 -0.990934 -0.990897 -0.990859 -0.990819 -0.990776 -0.990732 -0.990686 -0.990638 -0.990588 
262 -1.02468 -1.02468 -1.02467 -1.02466 -1.02465 -1.02463 -1.02462 -1.0246 -1.02457 -1.02455 
263 -0.850083 -0.850112 -0.850142 -0.850172 -0.850201 -0.850231 -0.85026 -0.850289 -0.850316 -0.850343 
264 -0.838606 -0.838604 -0.838591 -0.838567 -0.838531 -0.838485 -0.838428 -0.83836 -0.838281 -0.838193 
265 -0.701108 -0.701197 -0.701302 -0.701425 -0.701565 -0.701723 -0.7019 -0.702096 -0.70231 -0.702543 
266 -0.661124 -0.661259 -0.661405 -0.661561 -0.661729 -0.661908 -0.662099 -0.662301 -0.662514 -0.662738 
267 -0.907625 -0.907554 -0.907479 -0.9074 -0.907315 -0.907225 -0.90713 -0.907028 -0.90692 -0.906806 
268 -0.846984 -0.846725 -0.846455 -0.846173 -0.84588 -0.845577 -0.845264 -0.844943 -0.844614 -0.844278 
269 -0.850083 -0.850112 -0.850141 -0.850171 -0.850201 -0.850231 -0.85026 -0.850289 -0.850316 -0.850343 
270 -1.00522 -1.00528 -1.00534 -1.0054 -1.00547 -1.00553 -1.00559 -1.00564 -1.0057 -1.00575 
271 -0.963567 -0.963552 -0.963538 -0.963525 -0.963512 -0.963499 -0.963486 -0.963472 -0.963457 -0.96344 
272 -0.684436 -0.684478 -0.684532 -0.684597 -0.684675 -0.684765 -0.684867 -0.684981 -0.685106 -0.685243 
273 -0.766921 -0.766969 -0.767043 -0.767143 -0.767272 -0.767429 -0.767614 -0.767828 -0.768068 -0.768335 
274 -0.726893 -0.726978 -0.727079 -0.727198 -0.727334 -0.727488 -0.727659 -0.727847 -0.728053 -0.728275 
275 -0.850246 -0.850278 -0.85031 -0.850341 -0.850372 -0.850402 -0.850431 -0.850459 -0.850486 -0.850511 
276 -0.976908 -0.976952 -0.976994 -0.977034 -0.977073 -0.977108 -0.97714 -0.977169 -0.977193 -0.977212 
277 -0.850083 -0.850112 -0.850141 -0.850171 -0.850201 -0.850231 -0.85026 -0.850289 -0.850316 -0.850343 
278 -0.708767 -0.708873 -0.708992 -0.709123 -0.709267 -0.709421 -0.709586 -0.709762 -0.709946 -0.710139 
279 -0.757158 -0.757238 -0.75734 -0.757464 -0.757612 -0.757783 -0.757977 -0.758193 -0.758431 -0.758689 
280 -0.934302 -0.9343 -0.934299 -0.9343 -0.934302 -0.934303 -0.934302 -0.934299 -0.934293 -0.934282 
281 -0.816613 -0.816731 -0.816861 -0.817002 -0.817156 -0.81732 -0.817496 -0.81768 -0.817873 -0.818073 
282 -0.93758 -0.937642 -0.937714 -0.937796 -0.937887 -0.937984 -0.938087 -0.938194 -0.938304 -0.938415 
283 -0.892886 -0.892834 -0.892779 -0.892718 -0.892653 -0.892581 -0.892504 -0.892421 -0.892333 -0.892238 
284 -0.792081 -0.792159 -0.792259 -0.792382 -0.792528 -0.792697 -0.79289 -0.793104 -0.79334 -0.793595 
285 -0.742543 -0.742473 -0.742395 -0.742311 -0.742226 -0.742142 -0.742063 -0.741992 -0.741932 -0.741885 
286 -0.850083 -0.850112 -0.850141 -0.850171 -0.850201 -0.850231 -0.85026 -0.850289 -0.850316 -0.850343 
287 -0.775532 -0.775709 -0.775896 -0.776094 -0.776301 -0.776517 -0.776741 -0.776974 -0.777213 -0.777458 