VARIABLES = "Cell" "Mode 0" "Mode 1" "Mode 2" "Mode 3" "Mode 4" "Mode 5" "Mode 6" "Mode 7" "Mode 8" "Mode 9" 
ZONE T = Iteration61
0 -0.853605 -0.853708 -0.853815 -0.853925 -0.854038 -0.854154 -0.854273 -0.854393 -0.854513 -0.854632 
1 -0.853605 -0.853708 -0.853815 -0.853925 -0.854038 -0.854154 -0.854273 -0.854393 -0.854513 -0.854632 
2 -0.853605 -0.853708 -0.853815 -0.853925 -0.854038 -0.854154 -0.854273 -0.854393 -0.854513 -0.854632 
3 -0.853605 -0.853708 -0.853815 -0.853925 -0.854038 -0.854154 -0.854273 -0.854393 -0.854513 -0.854632 
4 -0.853605 -0.853708 -0.853815 -0.853925 -0.854038 -0.854154 -0.854273 -0.854393 -0.854513 -0.854632 
5 -0.853605 -0.853708 -0.853815 -0.853925 -0.854038 -0.854154 -0.854273 -0.854393 -0.854513 -0.854632 
6 -0.853605 -0.853708 -0.853815 -0.853925 -0.854038 -0.854154 -0.854273 -0.854393 -0.854513 -0.854632 
7 -0.853605 -0.853708 -0.853815 -0.853925 -0.854038 -0.854154 -0.854273 -0.854393 -0.854513 -0.854632 
8 -0.853605 -0.853708 -0.853815 -0.853925 -0.854038 -0.854154 -0.854273 -0.854393 -0.854513 -0.854632 
9 -0.853605 -0.853708 -0.853815 -0.853925 -0.854038 -0.854154 -0.854273 -0.854393 -0.854513 -0.854632 
10 -0.853605 -0.853708 -0.853815 -0.853925 -0.854038 -0.854154 -0.854273 -0.854393 -0.854513 -0.854632 
11 -0.853605 -0.853708 -0.853815 -0.853925 -0.854038 -0.854154 -0.854273 -0.854393 -0.854513 -0.854632 
12 -0.853605 -0.853708 -0.853815 -0.853925 -0.854038 -0.854154 -0.854273 -0.854393 -0.854513 -0.854632 
13 -0.853605 -0.853708 -0.853815 -0.853925 -0.854038 -0.854154 -0.854273 -0.854393 -0.854513 -0.854632 
14 -0.853605 -0.853708 -0.853815 -0.853925 -0.854038 -0.854154 -0.854273 -0.854393 -0.854513 -0.854632 
15 -0.853605 -0.853708 -0.853815 -0.853925 -0.854038 -0.854154 -0.854273 -0.854393 -0.854513 -0.854632 
16 -0.853605 -0.853708 -0.853815 -0.853925 -0.854038 -0.854154 -0.854273 -0.854393 -0.854513 -0.854632 
17 -0.853605 -0.853708 -0.853815 -0.853925 -0.854038 -0.854154 -0.854273 -0.854393 -0.854513 -0.854632 
18 -0.853605 -0.853708 -0.853815 -0.853925 -0.854038 -0.854154 -0.854273 -0.854393 -0.854513 -0.854632 
19 -0.853605 -0.853708 -0.853815 -0.853925 -0.854038 -0.854154 -0.854273 -0.854393 -0.854513 -0.854632 
20 -0.853605 -0.853708 -0.853815 -0.853925 -0.854038 -0.854154 -0.854273 -0.854393 -0.854513 -0.854632 
21 -0.853605 -0.853708 -0.853815 -0.853925 -0.854038 -0.854154 -0.854273 -0.854393 -0.854513 -0.854632 
22 -0.853605 -0.853708 -0.853815 -0.853925 -0.854038 -0.854154 -0.854273 -0.854393 -0.854513 -0.854632 
23 -0.853605 -0.853708 -0.853815 -0.853925 -0.854038 -0.854154 -0.854273 -0.854393 -0.854513 -0.854632 
24 -0.853605 -0.853708 -0.853815 -0.853925 -0.854038 -0.854154 -0.854273 -0.854393 -0.854513 -0.854632 
25 -0.853605 -0.853708 -0.853815 -0.853925 -0.854038 -0.854154 -0.854273 -0.854393 -0.854513 -0.854632 
26 -0.853605 -0.853708 -0.853815 -0.853925 -0.854038 -0.854154 -0.854273 -0.854393 -0.854513 -0.854632 
27 -0.853605 -0.853708 -0.853815 -0.853925 -0.854038 -0.854154 -0.854273 -0.854393 -0.854513 -0.854632 
28 -0.853605 -0.853708 -0.853815 -0.853925 -0.854038 -0.854154 -0.854273 -0.854393 -0.854513 -0.854632 
29 -0.853605 -0.853708 -0.853815 -0.853925 -0.854038 -0.854154 -0.854273 -0.854393 -0.854513 -0.854632 
30 -0.853605 -0.853708 -0.853815 -0.853925 -0.854038 -0.854154 -0.854273 -0.854393 -0.854513 -0.854632 
31 -0.853605 -0.853708 -0.853815 -0.853925 -0.854038 -0.854154 -0.854273 -0.854393 -0.854513 -0.854632 
32 -0.853605 -0.853708 -0.853815 -0.853925 -0.854038 -0.854154 -0.854273 -0.854393 -0.854513 -0.854632 
33 -0.853605 -0.853708 -0.853815 -0.853925 -0.854038 -0.854154 -0.854273 -0.854393 -0.854513 -0.854632 
34 -0.853605 -0.853708 -0.853815 -0.853925 -0.854038 -0.854154 -0.854273 -0.854393 -0.854513 -0.854632 
35 -0.853605 -0.853708 -0.853815 -0.853925 -0.854038 -0.854154 -0.854273 -0.854393 -0.854513 -0.854632 
36 -0.853605 -0.853708 -0.853815 -0.853925 -0.854038 -0.854154 -0.854273 -0.854393 -0.854513 -0.854632 
37 -0.853605 -0.853708 -0.853815 -0.853925 -0.854038 -0.854154 -0.854273 -0.854393 -0.854513 -0.854632 
38 -0.853605 -0.853708 -0.853815 -0.853925 -0.854038 -0.854154 -0.854273 -0.854393 -0.854513 -0.854632 
39 -0.853605 -0.853708 -0.853815 -0.853925 -0.854038 -0.854154 -0.854273 -0.854393 -0.854513 -0.854632 
40 -0.853605 -0.853708 -0.853815 -0.853925 -0.854038 -0.854154 -0.854273 -0.854393 -0.854513 -0.854632 
41 -0.853605 -0.853708 -0.853815 -0.853925 -0.854038 -0.854154 -0.854273 -0.854393 -0.854513 -0.854632 
42 -0.853605 -0.853708 -0.853815 -0.853925 -0.854038 -0.854154 -0.854273 -0.854393 -0.854513 -0.854632 
43 -0.853605 -0.853708 -0.853815 -0.853925 -0.854038 -0.854154 -0.854273 -0.854393 -0.854513 -0.854632 
44 -0.853605 -0.853708 -0.853815 -0.853925 -0.854038 -0.854154 -0.854273 -0.854393 -0.854513 -0.854632 
45 -0.853605 -0.853708 -0.853815 -0.853925 -0.854038 -0.854154 -0.854273 -0.854393 -0.854513 -0.854632 
46 -0.853605 -0.853708 -0.853815 -0.853925 -0.854038 -0.854154 -0.854273 -0.854393 -0.854513 -0.854632 
47 -0.853605 -0.853708 -0.853815 -0.853925 -0.854038 -0.854154 -0.854273 -0.854393 -0.854513 -0.854632 
48 -0.853605 -0.853708 -0.853815 -0.853925 -0.854038 -0.854154 -0.854273 -0.854393 -0.854513 -0.854632 
49 -0.853605 -0.853708 -0.853815 -0.853925 -0.854038 -0.854154 -0.854273 -0.854393 -0.854513 -0.854632 
50 -0.853605 -0.853708 -0.853815 -0.853925 -0.854038 -0.854154 -0.854273 -0.854393 -0.854513 -0.854632 
51 -0.853605 -0.853708 -0.853815 -0.853925 -0.854038 -0.854154 -0.854273 -0.854393 -0.854513 -0.854632 
52 -0.853605 -0.853708 -0.853815 -0.853925 -0.854038 -0.854154 -0.854273 -0.854393 -0.854513 -0.854632 
53 -0.853605 -0.853708 -0.853815 -0.853925 -0.854038 -0.854154 -0.854273 -0.854393 -0.854513 -0.854632 
54 -0.853605 -0.853708 -0.853815 -0.853925 -0.854038 -0.854154 -0.854273 -0.854393 -0.854513 -0.854632 
55 -0.853605 -0.853708 -0.853815 -0.853925 -0.854038 -0.854154 -0.854273 -0.854393 -0.854513 -0.854632 
56 -0.853605 -0.853708 -0.853815 -0.853925 -0.854038 -0.854154 -0.854273 -0.854393 -0.854513 -0.854632 
57 -0.853605 -0.853708 -0.853815 -0.853925 -0.854038 -0.854154 -0.854273 -0.854393 -0.854513 -0.854632 
58 -0.853605 -0.853708 -0.853815 -0.853925 -0.854038 -0.854154 -0.854273 -0.854393 -0.854513 -0.854632 
59 -0.853605 -0.853708 -0.853815 -0.853925 -0.854038 -0.854154 -0.854273 -0.854393 -0.854513 -0.854632 
60 -0.853605 -0.853708 -0.853815 -0.853925 -0.854038 -0.854154 -0.854273 -0.854393 -0.854513 -0.854632 
61 -0.853605 -0.853708 -0.853815 -0.853925 -0.854038 -0.854154 -0.854273 -0.854393 -0.854513 -0.854632 
62 -0.853605 -0.853708 -0.853815 -0.853925 -0.854038 -0.854154 -0.854273 -0.854393 -0.854513 -0.854632 
63 -0.853605 -0.853708 -0.853815 -0.853925 -0.854038 -0.854154 -0.854273 -0.854393 -0.854513 -0.854632 
64 -0.853605 -0.853708 -0.853815 -0.853925 -0.854038 -0.854154 -0.854273 -0.854393 -0.854513 -0.854632 
65 -0.853605 -0.853708 -0.853815 -0.853925 -0.854038 -0.854154 -0.854273 -0.854393 -0.854513 -0.854632 
66 -0.853605 -0.853708 -0.853815 -0.853925 -0.854038 -0.854154 -0.854273 -0.854393 -0.854513 -0.854632 
67 -0.853605 -0.853708 -0.853815 -0.853925 -0.854038 -0.854154 -0.854273 -0.854393 -0.854513 -0.854632 
68 -0.853605 -0.853708 -0.853815 -0.853925 -0.854038 -0.854154 -0.854273 -0.854393 -0.854513 -0.854632 
69 -0.853605 -0.853708 -0.853815 -0.853925 -0.854038 -0.854154 -0.854273 -0.854393 -0.854513 -0.854632 
70 -0.853605 -0.853708 -0.853815 -0.853925 -0.854038 -0.854154 -0.854273 -0.854393 -0.854513 -0.854632 
71 -0.853605 -0.853708 -0.853815 -0.853925 -0.854038 -0.854154 -0.854273 -0.854393 -0.854513 -0.854632 
72 -0.853605 -0.853708 -0.853815 -0.853925 -0.854038 -0.854154 -0.854273 -0.854393 -0.854513 -0.854632 
73 -0.853605 -0.853708 -0.853815 -0.853925 -0.854038 -0.854154 -0.854273 -0.854393 -0.854513 -0.854632 
74 -0.853605 -0.853708 -0.853815 -0.853925 -0.854038 -0.854154 -0.854273 -0.854393 -0.854513 -0.854632 
75 -0.853605 -0.853708 -0.853815 -0.853925 -0.854038 -0.854154 -0.854273 -0.854393 -0.854513 -0.854632 
76 -0.853605 -0.853708 -0.853815 -0.853925 -0.854038 -0.854154 -0.854273 -0.854393 -0.854513 -0.854632 
77 -0.853605 -0.853708 -0.853815 -0.853925 -0.854038 -0.854154 -0.854273 -0.854393 -0.854513 -0.854632 
78 -0.853605 -0.853708 -0.853815 -0.853925 -0.854038 -0.854154 -0.854273 -0.854393 -0.854513 -0.854632 
79 -0.853605 -0.853708 -0.853815 -0.853925 -0.854038 -0.854154 -0.854273 -0.854393 -0.854513 -0.854632 
80 -0.853605 -0.853708 -0.853815 -0.853925 -0.854038 -0.854154 -0.854273 -0.854393 -0.854513 -0.854632 
81 -0.853605 -0.853708 -0.853815 -0.853925 -0.854038 -0.854154 -0.854273 -0.854393 -0.854513 -0.854632 
82 -0.853605 -0.853708 -0.853815 -0.853925 -0.854038 -0.854154 -0.854273 -0.854393 -0.854513 -0.854632 
83 -0.853605 -0.853708 -0.853815 -0.853925 -0.854038 -0.854154 -0.854273 -0.854393 -0.854513 -0.854632 
84 -0.853605 -0.853708 -0.853815 -0.853925 -0.854038 -0.854154 -0.854273 -0.854393 -0.854513 -0.854632 
85 -0.853605 -0.853708 -0.853815 -0.853925 -0.854038 -0.854154 -0.854273 -0.854393 -0.854513 -0.854632 
86 -0.853605 -0.853708 -0.853815 -0.853925 -0.854038 -0.854154 -0.854273 -0.854393 -0.854513 -0.854632 
87 -0.853605 -0.853708 -0.853815 -0.853925 -0.854038 -0.854154 -0.854273 -0.854393 -0.854513 -0.854632 
88 -0.853605 -0.853708 -0.853815 -0.853925 -0.854038 -0.854154 -0.854273 -0.854393 -0.854513 -0.854632 
89 -0.853605 -0.853708 -0.853815 -0.853925 -0.854038 -0.854154 -0.854273 -0.854393 -0.854513 -0.854632 
90 -0.853605 -0.853708 -0.853815 -0.853925 -0.854038 -0.854154 -0.854273 -0.854393 -0.854513 -0.854632 
91 -0.853605 -0.853708 -0.853815 -0.853925 -0.854038 -0.854154 -0.854273 -0.854393 -0.854513 -0.854632 
92 -0.853605 -0.853708 -0.853815 -0.853925 -0.854038 -0.854154 -0.854273 -0.854393 -0.854513 -0.854632 
93 -0.853605 -0.853708 -0.853815 -0.853925 -0.854038 -0.854154 -0.854273 -0.854393 -0.854513 -0.854632 
94 -0.853605 -0.853708 -0.853815 -0.853925 -0.854038 -0.854154 -0.854273 -0.854393 -0.854513 -0.854632 
95 -0.853605 -0.853708 -0.853815 -0.853925 -0.854038 -0.854154 -0.854273 -0.854393 -0.854513 -0.854632 
96 -0.853605 -0.853708 -0.853815 -0.853925 -0.854038 -0.854154 -0.854273 -0.854393 -0.854513 -0.854632 
97 -0.853605 -0.853708 -0.853815 -0.853925 -0.854038 -0.854154 -0.854273 -0.854393 -0.854513 -0.854632 
98 -0.853605 -0.853708 -0.853815 -0.853925 -0.854038 -0.854154 -0.854273 -0.854393 -0.854513 -0.854632 
99 -0.853605 -0.853708 -0.853815 -0.853925 -0.854038 -0.854154 -0.854273 -0.854393 -0.854513 -0.854632 
100 -0.853606 -0.853708 -0.853815 -0.853925 -0.854038 -0.854154 -0.854273 -0.854393 -0.854513 -0.854632 
101 -0.853605 -0.853708 -0.853815 -0.853925 -0.854038 -0.854154 -0.854273 -0.854393 -0.854513 -0.854632 
102 -0.853605 -0.853708 -0.853815 -0.853925 -0.854038 -0.854154 -0.854273 -0.854393 -0.854513 -0.854632 
103 -0.853605 -0.853708 -0.853815 -0.853925 -0.854038 -0.854154 -0.854273 -0.854393 -0.854513 -0.854632 
104 -0.853606 -0.853708 -0.853815 -0.853925 -0.854038 -0.854154 -0.854273 -0.854393 -0.854513 -0.854632 
105 -0.853606 -0.853708 -0.853815 -0.853925 -0.854038 -0.854154 -0.854273 -0.854393 -0.854513 -0.854632 
106 -0.853605 -0.853708 -0.853815 -0.853925 -0.854038 -0.854154 -0.854273 -0.854393 -0.854513 -0.854632 
107 -0.853605 -0.853708 -0.853815 -0.853925 -0.854038 -0.854154 -0.854273 -0.854393 -0.854513 -0.854632 
108 -0.853605 -0.853708 -0.853815 -0.853925 -0.854038 -0.854154 -0.854273 -0.854393 -0.854513 -0.854632 
109 -0.853605 -0.853708 -0.853815 -0.853925 -0.854038 -0.854154 -0.854273 -0.854393 -0.854513 -0.854632 
110 -0.853605 -0.853708 -0.853815 -0.853924 -0.854037 -0.854154 -0.854273 -0.854393 -0.854513 -0.854632 
111 -0.853605 -0.853708 -0.853815 -0.853925 -0.854038 -0.854154 -0.854273 -0.854393 -0.854513 -0.854632 
112 -0.853605 -0.853708 -0.853815 -0.853925 -0.854038 -0.854154 -0.854273 -0.854393 -0.854513 -0.854632 
113 -0.853605 -0.853708 -0.853815 -0.853925 -0.854038 -0.854154 -0.854273 -0.854393 -0.854513 -0.854632 
114 -0.853606 -0.853708 -0.853815 -0.853925 -0.854038 -0.854154 -0.854273 -0.854393 -0.854513 -0.854632 
115 -0.853606 -0.853709 -0.853816 -0.853925 -0.854038 -0.854155 -0.854274 -0.854394 -0.854513 -0.854632 
116 -0.853605 -0.853708 -0.853815 -0.853925 -0.854038 -0.854154 -0.854273 -0.854393 -0.854513 -0.854632 
117 -0.853603 -0.853706 -0.853813 -0.853923 -0.854036 -0.854153 -0.854272 -0.854392 -0.854512 -0.854631 
118 -0.853606 -0.853709 -0.853815 -0.853925 -0.854038 -0.854154 -0.854274 -0.854394 -0.854513 -0.854632 
119 -0.853608 -0.85371 -0.853817 -0.853926 -0.854039 -0.854156 -0.854274 -0.854394 -0.854514 -0.854633 
120 -0.853604 -0.853706 -0.853813 -0.853922 -0.854035 -0.854152 -0.854271 -0.854391 -0.854511 -0.854631 
121 -0.853604 -0.853709 -0.853817 -0.853928 -0.854042 -0.854159 -0.854278 -0.854399 -0.854518 -0.854638 
122 -0.853612 -0.853714 -0.85382 -0.853929 -0.854041 -0.854157 -0.854276 -0.854395 -0.854514 -0.854633 
123 -0.853604 -0.853707 -0.853814 -0.853924 -0.854038 -0.854155 -0.854274 -0.854394 -0.854514 -0.854633 
124 -0.853607 -0.85371 -0.853816 -0.853926 -0.854039 -0.854155 -0.854274 -0.854394 -0.854514 -0.854633 
125 -0.853627 -0.853736 -0.853848 -0.853962 -0.854078 -0.854196 -0.854316 -0.854435 -0.854553 -0.854671 
126 -0.853605 -0.853708 -0.853815 -0.853925 -0.854038 -0.854154 -0.854273 -0.854393 -0.854513 -0.854632 
127 -0.853616 -0.853713 -0.853815 -0.853921 -0.854031 -0.854145 -0.854262 -0.854381 -0.854499 -0.854618 
128 -0.853608 -0.853712 -0.853819 -0.853929 -0.854042 -0.854158 -0.854278 -0.854398 -0.854517 -0.854636 
129 -0.853612 -0.85371 -0.853813 -0.853919 -0.85403 -0.854144 -0.854262 -0.854381 -0.854499 -0.854619 
130 -0.853652 -0.853756 -0.853863 -0.853972 -0.854084 -0.854199 -0.854315 -0.854432 -0.854549 -0.854664 
131 -0.853591 -0.853697 -0.853807 -0.853919 -0.854034 -0.854152 -0.854273 -0.854395 -0.854515 -0.854635 
132 -0.8536 -0.853703 -0.853811 -0.853921 -0.854034 -0.854151 -0.85427 -0.854391 -0.85451 -0.854629 
133 -0.853595 -0.853689 -0.853787 -0.853889 -0.853996 -0.854106 -0.85422 -0.854337 -0.854453 -0.854571 
134 -0.853422 -0.85354 -0.853663 -0.853788 -0.853917 -0.854048 -0.854182 -0.854316 -0.854448 -0.85458 
135 -0.853635 -0.853721 -0.853813 -0.85391 -0.854012 -0.85412 -0.854232 -0.854346 -0.854462 -0.854579 
136 -0.853605 -0.853708 -0.853815 -0.853925 -0.854038 -0.854154 -0.854273 -0.854393 -0.854513 -0.854632 
137 -0.853605 -0.853708 -0.853815 -0.853925 -0.854038 -0.854154 -0.854273 -0.854393 -0.854513 -0.854632 
138 -0.852166 -0.852351 -0.852548 -0.852755 -0.85297 -0.853193 -0.85342 -0.853648 -0.853874 -0.854098 
139 -0.855106 -0.85517 -0.855228 -0.855279 -0.855324 -0.855365 -0.855402 -0.855436 -0.855465 -0.855493 
140 -0.853607 -0.85371 -0.853816 -0.853926 -0.854038 -0.854155 -0.854274 -0.854394 -0.854513 -0.854632 
141 -0.853526 -0.853665 -0.853805 -0.853944 -0.854082 -0.85422 -0.854357 -0.85449 -0.85462 -0.854747 
142 -0.853706 -0.853757 -0.853816 -0.853885 -0.853962 -0.854049 -0.854143 -0.854244 -0.85435 -0.85446 
143 -0.853598 -0.853713 -0.853831 -0.853949 -0.854069 -0.854191 -0.854313 -0.854435 -0.854555 -0.854674 
144 -0.856904 -0.856748 -0.85659 -0.856433 -0.85628 -0.856132 -0.855992 -0.85586 -0.855737 -0.855626 
145 -0.853674 -0.853743 -0.853819 -0.853902 -0.853992 -0.854089 -0.854193 -0.854301 -0.854411 -0.854525 
146 -0.852996 -0.853184 -0.853378 -0.853576 -0.853777 -0.853979 -0.854182 -0.854381 -0.854576 -0.854764 
147 -0.853654 -0.853752 -0.853854 -0.853959 -0.854067 -0.854179 -0.854294 -0.854411 -0.854527 -0.854643 
148 -0.853448 -0.853563 -0.853682 -0.853805 -0.853931 -0.854061 -0.854193 -0.854325 -0.854457 -0.854587 
149 -0.852241 -0.85232 -0.852422 -0.852547 -0.852692 -0.852856 -0.853038 -0.853232 -0.853436 -0.853649 
150 -0.853323 -0.853497 -0.85367 -0.853841 -0.85401 -0.854176 -0.854339 -0.854497 -0.854648 -0.854792 
151 -0.854285 -0.854543 -0.854793 -0.855031 -0.855258 -0.855472 -0.855671 -0.855854 -0.856019 -0.856165 
152 -0.85361 -0.853713 -0.853819 -0.853929 -0.854041 -0.854157 -0.854276 -0.854396 -0.854515 -0.854634 
153 -0.848289 -0.848412 -0.848564 -0.848743 -0.848951 -0.849187 -0.849451 -0.84974 -0.850052 -0.850385 
154 -0.854833 -0.855236 -0.855615 -0.855966 -0.85629 -0.856583 -0.856845 -0.857072 -0.857263 -0.857418 
155 -0.856014 -0.856192 -0.85635 -0.856488 -0.856605 -0.856703 -0.856782 -0.856842 -0.856882 -0.856905 
156 -0.861683 -0.861253 -0.860789 -0.860296 -0.859779 -0.859243 -0.858695 -0.85814 -0.857584 -0.857034 
157 -0.852291 -0.85215 -0.852044 -0.851974 -0.851938 -0.851938 -0.851972 -0.852037 -0.852131 -0.852252 
158 -0.8556 -0.855566 -0.855528 -0.855488 -0.855448 -0.855409 -0.855373 -0.85534 -0.85531 -0.855286 
159 -0.853606 -0.853708 -0.853815 -0.853925 -0.854038 -0.854154 -0.854273 -0.854393 -0.854513 -0.854632 
160 -0.852687 -0.852687 -0.852716 -0.852772 -0.852853 -0.852959 -0.853087 -0.853232 -0.853393 -0.853566 
161 -0.836965 -0.837363 -0.837772 -0.838194 -0.838632 -0.839087 -0.839561 -0.840056 -0.840574 -0.841117 
162 -0.843178 -0.843543 -0.843948 -0.844391 -0.844869 -0.845381 -0.845923 -0.846491 -0.847081 -0.847688 
163 -0.846677 -0.847452 -0.84825 -0.849067 -0.849899 -0.850741 -0.851587 -0.85243 -0.853262 -0.854077 
164 -0.864194 -0.863943 -0.863672 -0.863381 -0.863071 -0.862742 -0.862394 -0.862025 -0.861636 -0.861227 
165 -0.863907 -0.863269 -0.862603 -0.861913 -0.861205 -0.860487 -0.859765 -0.859047 -0.858338 -0.857649 
166 -0.834897 -0.835699 -0.836558 -0.837473 -0.838443 -0.839465 -0.840537 -0.841651 -0.842801 -0.843982 
167 -0.856093 -0.856499 -0.856912 -0.857326 -0.857735 -0.858134 -0.858514 -0.858869 -0.859192 -0.859475 
168 -0.835525 -0.836134 -0.836788 -0.837486 -0.838229 -0.839016 -0.839845 -0.840713 -0.841616 -0.842553 
169 -0.853736 -0.853109 -0.852552 -0.85207 -0.851666 -0.851343 -0.851101 -0.85094 -0.850857 -0.850851 
170 -0.873516 -0.873643 -0.873769 -0.873891 -0.874005 -0.874106 -0.874187 -0.87424 -0.874255 -0.874222 
171 -0.880627 -0.879909 -0.879084 -0.878154 -0.877121 -0.87599 -0.874765 -0.873454 -0.872063 -0.870605 
172 -0.835252 -0.835838 -0.836501 -0.837245 -0.83807 -0.838977 -0.839965 -0.841028 -0.842163 -0.843364 
173 -0.853605 -0.853708 -0.853815 -0.853925 -0.854038 -0.854154 -0.854273 -0.854393 -0.854513 -0.854632 
174 -0.866147 -0.866592 -0.867031 -0.867459 -0.867871 -0.868261 -0.868623 -0.868953 -0.869245 -0.869496 
175 -0.880954 -0.881604 -0.882274 -0.88296 -0.883659 -0.884369 -0.885086 -0.885804 -0.886518 -0.887227 
176 -0.839532 -0.839488 -0.839454 -0.83943 -0.839418 -0.839418 -0.839432 -0.839459 -0.8395 -0.839555 
177 -0.828704 -0.828948 -0.829168 -0.82936 -0.82952 -0.829647 -0.82974 -0.829799 -0.829826 -0.829828 
178 -0.877948 -0.878642 -0.879351 -0.880071 -0.880797 -0.881526 -0.882254 -0.882976 -0.883689 -0.884393 
179 -0.853605 -0.853708 -0.853815 -0.853925 -0.854038 -0.854154 -0.854273 -0.854393 -0.854513 -0.854632 
180 -0.852966 -0.852994 -0.85303 -0.853077 -0.85314 -0.853222 -0.853325 -0.853452 -0.853601 -0.853773 
181 -0.888513 -0.888415 -0.8883 -0.888175 -0.888042 -0.887905 -0.887767 -0.887626 -0.887479 -0.887323 
182 -0.820717 -0.820487 -0.820255 -0.820023 -0.819793 -0.819569 -0.819351 -0.819142 -0.818942 -0.818752 
183 -0.836253 -0.836072 -0.835907 -0.835761 -0.835632 -0.835521 -0.835426 -0.835341 -0.835262 -0.835185 
184 -0.820664 -0.820956 -0.821311 -0.821734 -0.822231 -0.822808 -0.823469 -0.824221 -0.825067 -0.826014 
185 -0.889336 -0.890001 -0.890711 -0.891468 -0.892275 -0.893131 -0.894035 -0.894978 -0.895952 -0.896945 
186 -0.894485 -0.894887 -0.895263 -0.895604 -0.8959 -0.896141 -0.896319 -0.896426 -0.89646 -0.896425 
187 -0.826499 -0.826403 -0.826254 -0.826048 -0.825783 -0.825458 -0.825071 -0.824623 -0.824116 -0.823557 
188 -0.864592 -0.864478 -0.864381 -0.864306 -0.864257 -0.864242 -0.864267 -0.864338 -0.864456 -0.864616 
189 -0.88896 -0.88897 -0.888962 -0.888934 -0.888884 -0.888814 -0.888723 -0.88861 -0.888475 -0.888325 
190 -0.853606 -0.853699 -0.853797 -0.853899 -0.854006 -0.854118 -0.854233 -0.854351 -0.854469 -0.854588 
191 -0.853605 -0.853708 -0.853815 -0.853925 -0.854038 -0.854154 -0.854273 -0.854393 -0.854513 -0.854632 
192 -0.807879 -0.807481 -0.807107 -0.806759 -0.806442 -0.806161 -0.805914 -0.805692 -0.805488 -0.805302 
193 -0.853605 -0.853708 -0.853815 -0.853925 -0.854038 -0.854154 -0.854273 -0.854393 -0.854513 -0.854632 
194 -0.872758 -0.872474 -0.872158 -0.871806 -0.871416 -0.870986 -0.870514 -0.869996 -0.869432 -0.868822 
195 -0.851584 -0.851199 -0.850843 -0.850522 -0.850247 -0.850031 -0.849885 -0.849816 -0.849825 -0.849914 
196 -0.854168 -0.854511 -0.854829 -0.855121 -0.855387 -0.855626 -0.855838 -0.856021 -0.856175 -0.856301 
197 -0.853555 -0.85366 -0.85377 -0.853883 -0.854 -0.85412 -0.854243 -0.854367 -0.85449 -0.854613 
198 -0.853605 -0.853708 -0.853815 -0.853925 -0.854038 -0.854154 -0.854273 -0.854393 -0.854513 -0.854632 
199 -0.786327 -0.785801 -0.785313 -0.784866 -0.784466 -0.784111 -0.783803 -0.783541 -0.783321 -0.783141 
200 -0.830838 -0.830326 -0.829836 -0.829382 -0.828977 -0.828634 -0.828354 -0.828134 -0.827978 -0.827895 
201 -0.906795 -0.906834 -0.906861 -0.906878 -0.906885 -0.906875 -0.906847 -0.906813 -0.906792 -0.906802 
202 -0.853605 -0.853708 -0.853815 -0.853925 -0.854038 -0.854154 -0.854273 -0.854393 -0.854513 -0.854632 
203 -0.892951 -0.893089 -0.893149 -0.893122 -0.893001 -0.892778 -0.892445 -0.891995 -0.89142 -0.890716 
204 -0.853317 -0.853401 -0.853493 -0.853591 -0.853697 -0.853809 -0.853927 -0.85405 -0.854175 -0.854302 
205 -0.90318 -0.903458 -0.90369 -0.903865 -0.903973 -0.904006 -0.90396 -0.903833 -0.903627 -0.903353 
206 -0.853605 -0.853708 -0.853815 -0.853925 -0.854038 -0.854154 -0.854273 -0.854393 -0.854513 -0.854632 
207 -0.772921 -0.772445 -0.772006 -0.7716 -0.771231 -0.770907 -0.770628 -0.77039 -0.770181 -0.770004 
208 -0.85487 -0.854647 -0.854455 -0.854295 -0.854179 -0.854132 -0.854178 -0.854319 -0.854538 -0.854815 
209 -0.900799 -0.901117 -0.90143 -0.901738 -0.902043 -0.902347 -0.902652 -0.902961 -0.903276 -0.903602 
210 -0.915272 -0.915193 -0.915127 -0.91509 -0.915094 -0.915143 -0.915231 -0.915359 -0.915542 -0.915808 
211 -0.853605 -0.853708 -0.853815 -0.853925 -0.854038 -0.854154 -0.854273 -0.854393 -0.854513 -0.854632 
212 -0.853605 -0.853708 -0.853815 -0.853925 -0.854038 -0.854154 -0.854273 -0.854393 -0.854513 -0.854632 
213 -0.84412 -0.845255 -0.846395 -0.847532 -0.848659 -0.849769 -0.850852 -0.851901 -0.852904 -0.853856 
214 -0.756697 -0.756206 -0.755763 -0.755374 -0.755042 -0.75477 -0.754551 -0.754384 -0.754271 -0.754228 
215 -0.793595 -0.793051 -0.792517 -0.792034 -0.791612 -0.791215 -0.790813 -0.790433 -0.790153 -0.790021 
216 -0.80062 -0.80054 -0.800429 -0.800332 -0.800289 -0.800289 -0.800287 -0.800269 -0.800287 -0.80041 
217 -0.853829 -0.853855 -0.853887 -0.853924 -0.853966 -0.854014 -0.854068 -0.854126 -0.854187 -0.854252 
218 -0.839635 -0.839137 -0.838661 -0.838189 -0.837695 -0.837193 -0.836748 -0.83642 -0.836196 -0.836007 
219 -0.853605 -0.853708 -0.853815 -0.853924 -0.854038 -0.854154 -0.854273 -0.854393 -0.854513 -0.854632 
220 -0.947978 -0.947893 -0.947807 -0.947665 -0.947424 -0.94713 -0.946887 -0.946742 -0.946621 -0.946402 
221 -0.787579 -0.786999 -0.786458 -0.785956 -0.785484 -0.785041 -0.784652 -0.78435 -0.784148 -0.784024 
222 -0.729072 -0.728398 -0.727695 -0.726981 -0.726321 -0.725771 -0.725314 -0.724887 -0.724469 -0.724148 
223 -0.900327 -0.900011 -0.899679 -0.899351 -0.899004 -0.898611 -0.8982 -0.897843 -0.897588 -0.897391 
224 -0.923549 -0.923781 -0.923993 -0.924183 -0.924346 -0.924466 -0.924532 -0.924547 -0.924521 -0.924462 
225 -0.82095 -0.820848 -0.82071 -0.820535 -0.820321 -0.820071 -0.819788 -0.819478 -0.819146 -0.818804 
226 -0.792485 -0.79219 -0.791931 -0.791718 -0.791559 -0.791463 -0.791432 -0.791467 -0.791562 -0.791707 
227 -0.883931 -0.883275 -0.882571 -0.881837 -0.881079 -0.880306 -0.879549 -0.878854 -0.878251 -0.877742 
228 -0.819318 -0.819454 -0.819515 -0.81949 -0.819366 -0.819134 -0.818783 -0.818308 -0.817706 -0.81698 
229 -0.853605 -0.853708 -0.853815 -0.853925 -0.854038 -0.854154 -0.854273 -0.854393 -0.854513 -0.854632 
230 -0.853605 -0.853708 -0.853815 -0.853925 -0.854038 -0.854154 -0.854273 -0.854393 -0.854513 -0.854632 
231 -0.853605 -0.853708 -0.853815 -0.853925 -0.854038 -0.854154 -0.854273 -0.854393 -0.854513 -0.854632 
232 -1.08039 -1.07879 -1.07705 -1.07538 -1.07395 -1.07271 -1.07141 -1.06997 -1.06864 -1.06778 
233 -0.853605 -0.853708 -0.853815 -0.853925 -0.854038 -0.854154 -0.854273 -0.854393 -0.854513 -0.854632 
234 -0.981396 -0.981104 -0.980781 -0.9804 -0.979968 -0.979541 -0.979173 -0.978852 -0.978517 -0.978133 
235 -0.638749 -0.638129 -0.637633 -0.637123 -0.636512 -0.635935 -0.635648 -0.635751 -0.636036 -0.63622 
236 -0.915377 -0.915707 -0.916024 -0.916313 -0.91656 -0.916753 -0.916888 -0.916957 -0.91695 -0.916857 
237 -1.09668 -1.09501 -1.09317 -1.09141 -1.08991 -1.08858 -1.08716 -1.08559 -1.08418 -1.08333 
238 -0.853599 -0.853702 -0.85381 -0.85392 -0.854034 -0.854151 -0.85427 -0.854391 -0.854511 -0.85463 
239 -0.700735 -0.700189 -0.69971 -0.699128 -0.698398 -0.697729 -0.697407 -0.697458 -0.697584 -0.697515 
240 -0.75807 -0.757901 -0.757835 -0.75786 -0.757964 -0.758147 -0.758413 -0.758758 -0.759168 -0.759637 
241 -0.725073 -0.724739 -0.724461 -0.724261 -0.724164 -0.724166 -0.724236 -0.724351 -0.72452 -0.72478 
242 -0.853605 -0.853708 -0.853815 -0.853925 -0.854038 -0.854154 -0.854273 -0.854393 -0.854513 -0.854632 
243 -0.988077 -0.988061 -0.987983 -0.987856 -0.987722 -0.987606 -0.987479 -0.987281 -0.987001 -0.986703 
244 -1.10627 -1.10514 -1.10411 -1.1033 -1.10261 -1.10181 -1.10084 -1.09996 -1.09947 -1.09938 
245 -0.513687 -0.513927 -0.514111 -0.514161 -0.514214 -0.514504 -0.515073 -0.515672 -0.516022 -0.516172 
246 -1.04309 -1.04246 -1.04192 -1.04147 -1.04101 -1.04042 -1.03977 -1.03925 -1.03899 -1.03886 
247 -0.854532 -0.854596 -0.854655 -0.854712 -0.854766 -0.854819 -0.854872 -0.854925 -0.854976 -0.855028 
248 -0.853605 -0.853708 -0.853815 -0.853925 -0.854038 -0.854154 -0.854273 -0.854393 -0.854513 -0.854632 
249 -0.601743 -0.601746 -0.601723 -0.601707 -0.601804 -0.602078 -0.602453 -0.602778 -0.603008 -0.603278 
250 -0.8061 -0.80609 -0.806073 -0.806051 -0.806028 -0.806006 -0.805983 -0.805952 -0.805904 -0.805825 
251 -0.76412 -0.764084 -0.764139 -0.764285 -0.764524 -0.764862 -0.765295 -0.765817 -0.766425 -0.767119 
252 -0.736721 -0.736687 -0.736765 -0.736945 -0.737192 -0.737483 -0.737821 -0.738229 -0.738704 -0.739208 
253 -0.853605 -0.853708 -0.853815 -0.853925 -0.854038 -0.854154 -0.854273 -0.854393 -0.854513 -0.854632 
254 -0.890444 -0.890805 -0.8912 -0.891635 -0.892117 -0.892651 -0.893242 -0.89389 -0.894596 -0.895356 
255 -0.853605 -0.853708 -0.853815 -0.853925 -0.854038 -0.854154 -0.854273 -0.854393 -0.854513 -0.854632 
256 -0.866342 -0.865732 -0.865112 -0.864482 -0.863847 -0.863211 -0.862578 -0.861948 -0.861327 -0.860717 
257 -1.04382 -1.0437 -1.04371 -1.04374 -1.04367 -1.04354 -1.04351 -1.0437 -1.044 -1.04419 
258 -0.821119 -0.82115 -0.821073 -0.820866 -0.820508 -0.819985 -0.819283 -0.818393 -0.817315 -0.816055 
259 -0.887742 -0.888229 -0.888722 -0.889224 -0.889736 -0.890259 -0.890792 -0.891334 -0.89188 -0.892429 
260 -0.623301 -0.623424 -0.623544 -0.62377 -0.624181 -0.624702 -0.625157 -0.625472 -0.625778 -0.626247 
261 -0.994594 -0.994626 -0.994605 -0.994523 -0.994405 -0.994289 -0.994179 -0.994042 -0.993851 -0.993634 
262 -1.02457 -1.02453 -1.0245 -1.02443 -1.02432 -1.02422 -1.02419 -1.02422 -1.02423 -1.02416 
263 -0.853605 -0.853708 -0.853815 -0.853925 -0.854038 -0.854154 -0.854273 -0.854393 -0.854513 -0.854632 
264 -0.818683 -0.817862 -0.817064 -0.816303 -0.815595 -0.814956 -0.814402 -0.813947 -0.813606 -0.813393 
265 -0.709122 -0.709299 -0.709596 -0.710049 -0.710604 -0.711162 -0.711679 -0.712219 -0.712855 -0.71355 
266 -0.668442 -0.668654 -0.668923 -0.669315 -0.669825 -0.670358 -0.670823 -0.671244 -0.671725 -0.672302 
267 -0.914067 -0.914555 -0.915049 -0.915534 -0.916002 -0.916453 -0.916889 -0.917304 -0.91769 -0.918051 
268 -0.828233 -0.828309 -0.828471 -0.828723 -0.829074 -0.829528 -0.83009 -0.830761 -0.831541 -0.832432 
269 -0.853605 -0.853708 -0.853815 -0.853925 -0.854038 -0.854154 -0.854273 -0.854393 -0.854513 -0.854632 
270 -1.00435 -1.00435 -1.00431 -1.00426 -1.00425 -1.00431 -1.0044 -1.00445 -1.00448 -1.00458 
271 -0.968118 -0.968272 -0.968392 -0.968503 -0.968617 -0.968711 -0.968747 -0.968727 -0.968698 -0.968716 
272 -0.691038 -0.691212 -0.691486 -0.691771 -0.691967 -0.69211 -0.692368 -0.692848 -0.693423 -0.693828 
273 -0.769815 -0.770205 -0.770683 -0.771251 -0.771908 -0.772647 -0.773452 -0.774314 -0.775232 -0.776205 
274 -0.733495 -0.733875 -0.734396 -0.735003 -0.735645 -0.736328 -0.73709 -0.737923 -0.738735 -0.739431 
275 -0.853605 -0.853708 -0.853814 -0.853924 -0.854037 -0.854154 -0.854273 -0.854393 -0.854513 -0.854632 
276 -0.977868 -0.977982 -0.978069 -0.978162 -0.978293 -0.978454 -0.978609 -0.978741 -0.978894 -0.979128 
277 -0.853605 -0.853708 -0.853815 -0.853925 -0.854038 -0.854154 -0.854273 -0.854393 -0.854513 -0.854632 
278 -0.714821 -0.715193 -0.715655 -0.716146 -0.716626 -0.717134 -0.717747 -0.71846 -0.719142 -0.719644 
279 -0.763773 -0.764366 -0.765064 -0.765845 -0.766711 -0.767662 -0.768669 -0.769675 -0.77064 -0.771578 
280 -0.940085 -0.940523 -0.940974 -0.941424 -0.941854 -0.942249 -0.942616 -0.942968 -0.943308 -0.94362 
281 -0.810684 -0.810698 -0.810672 -0.810614 -0.810535 -0.810446 -0.810357 -0.810272 -0.810193 -0.810122 
282 -0.939483 -0.939735 -0.940045 -0.940387 -0.940721 -0.941015 -0.941261 -0.94146 -0.941596 -0.941632 
283 -0.899993 -0.90052 -0.901082 -0.901677 -0.902305 -0.902964 -0.903653 -0.904369 -0.905109 -0.905875 
284 -0.792164 -0.792436 -0.792719 -0.793018 -0.793342 -0.793703 -0.794114 -0.794583 -0.795115 -0.795706 
285 -0.746514 -0.746869 -0.747172 -0.74744 -0.747737 -0.748077 -0.748381 -0.748543 -0.748557 -0.748553 
286 -0.853605 -0.853708 -0.853815 -0.853925 -0.854038 -0.854154 -0.854273 -0.854393 -0.854513 -0.854632 