VARIABLES = "Cell" "Mode 0" "Mode 1" "Mode 2" "Mode 3" "Mode 4" "Mode 5" "Mode 6" "Mode 7" "Mode 8" "Mode 9" 
ZONE T = Iteration169
0 -0.850156 -0.850123 -0.85009 -0.850059 -0.85003 -0.850002 -0.849976 -0.849951 -0.84993 -0.84991 
1 -0.850156 -0.850123 -0.85009 -0.850059 -0.85003 -0.850002 -0.849976 -0.849951 -0.84993 -0.84991 
2 -0.850156 -0.850123 -0.85009 -0.850059 -0.85003 -0.850002 -0.849976 -0.849951 -0.84993 -0.84991 
3 -0.850156 -0.850123 -0.85009 -0.850059 -0.85003 -0.850002 -0.849976 -0.849951 -0.84993 -0.84991 
4 -0.850156 -0.850123 -0.85009 -0.850059 -0.85003 -0.850002 -0.849976 -0.849951 -0.84993 -0.84991 
5 -0.850156 -0.850123 -0.85009 -0.850059 -0.85003 -0.850002 -0.849976 -0.849951 -0.84993 -0.84991 
6 -0.850156 -0.850123 -0.85009 -0.850059 -0.85003 -0.850002 -0.849976 -0.849951 -0.84993 -0.84991 
7 -0.850156 -0.850123 -0.85009 -0.850059 -0.85003 -0.850002 -0.849976 -0.849951 -0.84993 -0.84991 
8 -0.850156 -0.850123 -0.85009 -0.850059 -0.85003 -0.850002 -0.849976 -0.849951 -0.84993 -0.84991 
9 -0.850156 -0.850123 -0.85009 -0.850059 -0.85003 -0.850002 -0.849976 -0.849951 -0.84993 -0.84991 
10 -0.850156 -0.850123 -0.85009 -0.850059 -0.85003 -0.850002 -0.849976 -0.849951 -0.84993 -0.84991 
11 -0.850156 -0.850123 -0.85009 -0.850059 -0.85003 -0.850002 -0.849976 -0.849951 -0.84993 -0.84991 
12 -0.850156 -0.850123 -0.85009 -0.850059 -0.85003 -0.850002 -0.849976 -0.849951 -0.84993 -0.84991 
13 -0.850156 -0.850123 -0.85009 -0.850059 -0.85003 -0.850002 -0.849976 -0.849951 -0.84993 -0.84991 
14 -0.850156 -0.850123 -0.85009 -0.850059 -0.85003 -0.850002 -0.849976 -0.849951 -0.84993 -0.84991 
15 -0.850156 -0.850123 -0.85009 -0.850059 -0.85003 -0.850002 -0.849976 -0.849951 -0.84993 -0.84991 
16 -0.850156 -0.850123 -0.85009 -0.850059 -0.85003 -0.850002 -0.849976 -0.849951 -0.84993 -0.84991 
17 -0.850156 -0.850123 -0.85009 -0.850059 -0.85003 -0.850002 -0.849976 -0.849951 -0.84993 -0.84991 
18 -0.850156 -0.850123 -0.85009 -0.850059 -0.85003 -0.850002 -0.849976 -0.849951 -0.84993 -0.84991 
19 -0.850156 -0.850123 -0.85009 -0.850059 -0.85003 -0.850002 -0.849976 -0.849951 -0.84993 -0.84991 
20 -0.850156 -0.850123 -0.85009 -0.850059 -0.85003 -0.850002 -0.849976 -0.849951 -0.84993 -0.84991 
21 -0.850156 -0.850123 -0.85009 -0.850059 -0.85003 -0.850002 -0.849976 -0.849951 -0.84993 -0.84991 
22 -0.850156 -0.850123 -0.85009 -0.850059 -0.85003 -0.850002 -0.849976 -0.849951 -0.84993 -0.84991 
23 -0.850156 -0.850123 -0.85009 -0.850059 -0.85003 -0.850002 -0.849976 -0.849951 -0.84993 -0.84991 
24 -0.850156 -0.850123 -0.85009 -0.850059 -0.85003 -0.850002 -0.849976 -0.849951 -0.84993 -0.84991 
25 -0.850156 -0.850123 -0.85009 -0.850059 -0.85003 -0.850002 -0.849976 -0.849951 -0.84993 -0.84991 
26 -0.850156 -0.850123 -0.85009 -0.850059 -0.85003 -0.850002 -0.849976 -0.849951 -0.84993 -0.84991 
27 -0.850156 -0.850123 -0.85009 -0.850059 -0.85003 -0.850002 -0.849976 -0.849951 -0.84993 -0.84991 
28 -0.850156 -0.850123 -0.85009 -0.850059 -0.85003 -0.850002 -0.849976 -0.849951 -0.84993 -0.84991 
29 -0.850156 -0.850123 -0.85009 -0.850059 -0.85003 -0.850002 -0.849976 -0.849951 -0.84993 -0.84991 
30 -0.850156 -0.850123 -0.85009 -0.850059 -0.85003 -0.850002 -0.849976 -0.849951 -0.84993 -0.84991 
31 -0.850156 -0.850123 -0.85009 -0.850059 -0.85003 -0.850002 -0.849976 -0.849951 -0.84993 -0.84991 
32 -0.850156 -0.850123 -0.85009 -0.850059 -0.85003 -0.850002 -0.849976 -0.849951 -0.84993 -0.84991 
33 -0.850156 -0.850123 -0.85009 -0.850059 -0.85003 -0.850002 -0.849976 -0.849951 -0.84993 -0.84991 
34 -0.850156 -0.850123 -0.85009 -0.850059 -0.85003 -0.850002 -0.849976 -0.849951 -0.84993 -0.84991 
35 -0.850156 -0.850123 -0.85009 -0.850059 -0.85003 -0.850002 -0.849976 -0.849951 -0.84993 -0.84991 
36 -0.850156 -0.850123 -0.85009 -0.850059 -0.85003 -0.850002 -0.849976 -0.849951 -0.84993 -0.84991 
37 -0.850156 -0.850123 -0.85009 -0.850059 -0.85003 -0.850002 -0.849976 -0.849951 -0.84993 -0.84991 
38 -0.850156 -0.850123 -0.85009 -0.850059 -0.85003 -0.850002 -0.849976 -0.849951 -0.84993 -0.84991 
39 -0.850156 -0.850123 -0.85009 -0.850059 -0.85003 -0.850002 -0.849976 -0.849951 -0.84993 -0.84991 
40 -0.850156 -0.850123 -0.85009 -0.850059 -0.85003 -0.850002 -0.849976 -0.849951 -0.84993 -0.84991 
41 -0.850156 -0.850123 -0.85009 -0.850059 -0.85003 -0.850002 -0.849976 -0.849951 -0.84993 -0.84991 
42 -0.850156 -0.850123 -0.85009 -0.850059 -0.85003 -0.850002 -0.849976 -0.849951 -0.84993 -0.84991 
43 -0.850156 -0.850123 -0.85009 -0.850059 -0.85003 -0.850002 -0.849976 -0.849951 -0.84993 -0.84991 
44 -0.850156 -0.850123 -0.85009 -0.850059 -0.85003 -0.850002 -0.849976 -0.849951 -0.84993 -0.84991 
45 -0.850156 -0.850123 -0.85009 -0.850059 -0.85003 -0.850002 -0.849976 -0.849951 -0.84993 -0.84991 
46 -0.850156 -0.850123 -0.85009 -0.850059 -0.85003 -0.850002 -0.849976 -0.849951 -0.84993 -0.84991 
47 -0.850156 -0.850123 -0.85009 -0.850059 -0.85003 -0.850002 -0.849976 -0.849951 -0.84993 -0.84991 
48 -0.850156 -0.850123 -0.85009 -0.850059 -0.85003 -0.850002 -0.849976 -0.849951 -0.84993 -0.84991 
49 -0.850156 -0.850123 -0.85009 -0.850059 -0.85003 -0.850002 -0.849976 -0.849951 -0.84993 -0.84991 
50 -0.850156 -0.850123 -0.85009 -0.850059 -0.85003 -0.850002 -0.849976 -0.849951 -0.84993 -0.84991 
51 -0.850156 -0.850123 -0.85009 -0.850059 -0.85003 -0.850002 -0.849976 -0.849951 -0.84993 -0.84991 
52 -0.850156 -0.850123 -0.85009 -0.850059 -0.85003 -0.850002 -0.849976 -0.849951 -0.84993 -0.84991 
53 -0.850156 -0.850123 -0.85009 -0.850059 -0.85003 -0.850002 -0.849976 -0.849951 -0.84993 -0.84991 
54 -0.850156 -0.850123 -0.85009 -0.850059 -0.85003 -0.850002 -0.849976 -0.849951 -0.84993 -0.84991 
55 -0.850156 -0.850123 -0.85009 -0.850059 -0.85003 -0.850002 -0.849976 -0.849951 -0.84993 -0.84991 
56 -0.850156 -0.850123 -0.85009 -0.850059 -0.85003 -0.850002 -0.849976 -0.849951 -0.84993 -0.84991 
57 -0.850156 -0.850123 -0.85009 -0.850059 -0.85003 -0.850002 -0.849976 -0.849951 -0.84993 -0.84991 
58 -0.850156 -0.850123 -0.85009 -0.850059 -0.85003 -0.850002 -0.849976 -0.849951 -0.84993 -0.84991 
59 -0.850156 -0.850123 -0.85009 -0.850059 -0.85003 -0.850002 -0.849976 -0.849951 -0.84993 -0.84991 
60 -0.850156 -0.850123 -0.85009 -0.850059 -0.85003 -0.850002 -0.849976 -0.849951 -0.84993 -0.84991 
61 -0.850156 -0.850123 -0.85009 -0.850059 -0.85003 -0.850002 -0.849976 -0.849951 -0.84993 -0.84991 
62 -0.850156 -0.850123 -0.85009 -0.850059 -0.85003 -0.850002 -0.849976 -0.849951 -0.84993 -0.84991 
63 -0.850156 -0.850123 -0.85009 -0.850059 -0.85003 -0.850002 -0.849976 -0.849951 -0.84993 -0.84991 
64 -0.850156 -0.850123 -0.85009 -0.850059 -0.85003 -0.850002 -0.849976 -0.849951 -0.84993 -0.84991 
65 -0.850156 -0.850123 -0.85009 -0.850059 -0.85003 -0.850002 -0.849976 -0.849951 -0.84993 -0.84991 
66 -0.850156 -0.850123 -0.85009 -0.850059 -0.85003 -0.850002 -0.849976 -0.849951 -0.84993 -0.84991 
67 -0.850156 -0.850123 -0.85009 -0.850059 -0.85003 -0.850002 -0.849976 -0.849951 -0.84993 -0.84991 
68 -0.850156 -0.850123 -0.85009 -0.850059 -0.85003 -0.850002 -0.849976 -0.849951 -0.84993 -0.84991 
69 -0.850156 -0.850123 -0.85009 -0.850059 -0.85003 -0.850002 -0.849976 -0.849951 -0.84993 -0.84991 
70 -0.850156 -0.850123 -0.85009 -0.850059 -0.85003 -0.850002 -0.849976 -0.849951 -0.84993 -0.84991 
71 -0.850156 -0.850123 -0.85009 -0.850059 -0.85003 -0.850002 -0.849976 -0.849951 -0.84993 -0.84991 
72 -0.850156 -0.850123 -0.85009 -0.850059 -0.85003 -0.850002 -0.849976 -0.849951 -0.84993 -0.84991 
73 -0.850156 -0.850123 -0.85009 -0.850059 -0.85003 -0.850002 -0.849976 -0.849951 -0.84993 -0.84991 
74 -0.850156 -0.850123 -0.85009 -0.850059 -0.85003 -0.850002 -0.849976 -0.849951 -0.84993 -0.84991 
75 -0.850156 -0.850123 -0.85009 -0.850059 -0.85003 -0.850002 -0.849976 -0.849951 -0.84993 -0.84991 
76 -0.850156 -0.850123 -0.85009 -0.850059 -0.85003 -0.850002 -0.849976 -0.849951 -0.84993 -0.84991 
77 -0.850156 -0.850123 -0.85009 -0.850059 -0.85003 -0.850002 -0.849976 -0.849951 -0.84993 -0.84991 
78 -0.850156 -0.850123 -0.85009 -0.850059 -0.85003 -0.850002 -0.849976 -0.849951 -0.84993 -0.84991 
79 -0.850156 -0.850123 -0.85009 -0.850059 -0.85003 -0.850002 -0.849976 -0.849951 -0.84993 -0.84991 
80 -0.850156 -0.850123 -0.85009 -0.850059 -0.85003 -0.850002 -0.849976 -0.849951 -0.84993 -0.84991 
81 -0.850156 -0.850123 -0.85009 -0.850059 -0.85003 -0.850002 -0.849976 -0.849951 -0.84993 -0.84991 
82 -0.850156 -0.850123 -0.85009 -0.850059 -0.85003 -0.850002 -0.849976 -0.849951 -0.84993 -0.84991 
83 -0.850156 -0.850123 -0.85009 -0.850059 -0.85003 -0.850002 -0.849976 -0.849951 -0.84993 -0.84991 
84 -0.850156 -0.850123 -0.85009 -0.850059 -0.85003 -0.850002 -0.849976 -0.849952 -0.84993 -0.84991 
85 -0.850156 -0.850123 -0.85009 -0.850059 -0.85003 -0.850002 -0.849976 -0.849951 -0.84993 -0.84991 
86 -0.850156 -0.850123 -0.85009 -0.850059 -0.85003 -0.850002 -0.849976 -0.849951 -0.84993 -0.84991 
87 -0.850156 -0.850123 -0.85009 -0.850059 -0.85003 -0.850002 -0.849976 -0.849951 -0.84993 -0.84991 
88 -0.850156 -0.850123 -0.85009 -0.850059 -0.85003 -0.850002 -0.849976 -0.849951 -0.84993 -0.84991 
89 -0.850156 -0.850123 -0.85009 -0.850059 -0.85003 -0.850002 -0.849976 -0.849952 -0.84993 -0.84991 
90 -0.850156 -0.850123 -0.85009 -0.850059 -0.85003 -0.850002 -0.849976 -0.849951 -0.84993 -0.84991 
91 -0.850158 -0.850125 -0.850092 -0.850061 -0.850031 -0.850003 -0.849977 -0.849953 -0.849931 -0.849911 
92 -0.850157 -0.850123 -0.850091 -0.85006 -0.85003 -0.850002 -0.849976 -0.849952 -0.84993 -0.849911 
93 -0.850157 -0.850124 -0.850091 -0.85006 -0.850031 -0.850003 -0.849977 -0.849953 -0.849931 -0.849911 
94 -0.850156 -0.850123 -0.85009 -0.850059 -0.85003 -0.850002 -0.849976 -0.849951 -0.84993 -0.84991 
95 -0.850163 -0.850129 -0.850097 -0.850065 -0.850036 -0.850007 -0.849981 -0.849957 -0.849935 -0.849915 
96 -0.850156 -0.850123 -0.85009 -0.850059 -0.850029 -0.850001 -0.849975 -0.849951 -0.849929 -0.84991 
97 -0.850158 -0.850124 -0.850092 -0.850061 -0.850031 -0.850003 -0.849977 -0.849953 -0.849931 -0.849911 
98 -0.850156 -0.850123 -0.85009 -0.850059 -0.85003 -0.850002 -0.849976 -0.849951 -0.84993 -0.84991 
99 -0.85013 -0.850097 -0.850066 -0.850035 -0.850007 -0.84998 -0.849955 -0.849932 -0.849911 -0.849892 
100 -0.850171 -0.850138 -0.850105 -0.850074 -0.850045 -0.850017 -0.84999 -0.849966 -0.849944 -0.849925 
101 -0.850154 -0.85012 -0.850088 -0.850057 -0.850027 -0.849999 -0.849973 -0.849949 -0.849927 -0.849908 
102 -0.850141 -0.850108 -0.850077 -0.850046 -0.850017 -0.84999 -0.849965 -0.849941 -0.84992 -0.849901 
103 -0.850157 -0.850123 -0.850091 -0.85006 -0.85003 -0.850002 -0.849976 -0.849952 -0.84993 -0.84991 
104 -0.850139 -0.850107 -0.850077 -0.850047 -0.850019 -0.849993 -0.849968 -0.849946 -0.849925 -0.849907 
105 -0.850184 -0.850149 -0.850115 -0.850082 -0.850051 -0.850021 -0.849993 -0.849968 -0.849945 -0.849924 
106 -0.850157 -0.850123 -0.850091 -0.85006 -0.85003 -0.850002 -0.849976 -0.849952 -0.84993 -0.84991 
107 -0.850156 -0.850123 -0.85009 -0.850059 -0.85003 -0.850002 -0.849976 -0.849951 -0.84993 -0.84991 
108 -0.850147 -0.850114 -0.850082 -0.850051 -0.850022 -0.849995 -0.849969 -0.849945 -0.849924 -0.849905 
109 -0.850147 -0.850113 -0.850081 -0.85005 -0.85002 -0.849992 -0.849966 -0.849942 -0.84992 -0.849901 
110 -0.850182 -0.850139 -0.850097 -0.850057 -0.850019 -0.849983 -0.84995 -0.849919 -0.84989 -0.849865 
111 -0.850026 -0.849997 -0.849968 -0.849941 -0.849916 -0.849892 -0.84987 -0.84985 -0.849833 -0.849817 
112 -0.850157 -0.850124 -0.850091 -0.85006 -0.850031 -0.850003 -0.849977 -0.849952 -0.849931 -0.849911 
113 -0.850156 -0.850123 -0.85009 -0.850059 -0.85003 -0.850002 -0.849976 -0.849951 -0.84993 -0.84991 
114 -0.850177 -0.85014 -0.850105 -0.850071 -0.850038 -0.850008 -0.849979 -0.849953 -0.849929 -0.849907 
115 -0.850272 -0.850244 -0.850215 -0.850188 -0.850161 -0.850136 -0.850112 -0.850089 -0.850068 -0.850049 
116 -0.850123 -0.850091 -0.850059 -0.850029 -0.850001 -0.849974 -0.849949 -0.849926 -0.849906 -0.849888 
117 -0.8498 -0.849764 -0.849729 -0.849697 -0.849668 -0.84964 -0.849616 -0.849594 -0.849575 -0.849559 
118 -0.850635 -0.850586 -0.850538 -0.850491 -0.850445 -0.850401 -0.850359 -0.850319 -0.850281 -0.850245 
119 -0.850463 -0.850415 -0.850369 -0.850323 -0.85028 -0.850238 -0.850197 -0.850159 -0.850123 -0.85009 
120 -0.850342 -0.850265 -0.850191 -0.850118 -0.850048 -0.849981 -0.849917 -0.849856 -0.849799 -0.849745 
121 -0.84984 -0.849861 -0.849883 -0.849905 -0.849928 -0.849951 -0.849975 -0.85 -0.850026 -0.850053 
122 -0.851065 -0.851004 -0.850942 -0.850882 -0.850822 -0.850764 -0.850706 -0.850651 -0.850597 -0.850546 
123 -0.850381 -0.850343 -0.850306 -0.850271 -0.850237 -0.850206 -0.850176 -0.850148 -0.850123 -0.850101 
124 -0.849874 -0.849836 -0.849801 -0.849767 -0.849736 -0.849707 -0.84968 -0.849656 -0.849634 -0.849615 
125 -0.851486 -0.851497 -0.851508 -0.851519 -0.85153 -0.851541 -0.851552 -0.851563 -0.851574 -0.851586 
126 -0.850156 -0.850123 -0.85009 -0.850059 -0.85003 -0.850002 -0.849976 -0.849951 -0.84993 -0.84991 
127 -0.848871 -0.848837 -0.848804 -0.848774 -0.848746 -0.848721 -0.848699 -0.84868 -0.848664 -0.848652 
128 -0.849779 -0.849736 -0.849694 -0.849655 -0.849619 -0.849585 -0.849553 -0.849525 -0.8495 -0.849478 
129 -0.851447 -0.851315 -0.851184 -0.851056 -0.85093 -0.850808 -0.850688 -0.850572 -0.85046 -0.850352 
130 -0.853198 -0.853146 -0.853094 -0.853042 -0.85299 -0.852938 -0.852887 -0.852836 -0.852785 -0.852735 
131 -0.849646 -0.849679 -0.849712 -0.849745 -0.849779 -0.849813 -0.849847 -0.849882 -0.849917 -0.849953 
132 -0.847842 -0.84791 -0.847979 -0.848049 -0.848121 -0.848195 -0.848271 -0.848348 -0.848428 -0.848509 
133 -0.851314 -0.851224 -0.851131 -0.851038 -0.850944 -0.850849 -0.850754 -0.850658 -0.850563 -0.850468 
134 -0.849337 -0.849339 -0.849341 -0.849344 -0.849348 -0.849354 -0.84936 -0.849368 -0.849378 -0.84939 
135 -0.84672 -0.846693 -0.846669 -0.846647 -0.846628 -0.846612 -0.8466 -0.846591 -0.846587 -0.846587 
136 -0.850156 -0.850123 -0.85009 -0.850059 -0.85003 -0.850002 -0.849976 -0.849952 -0.84993 -0.84991 
137 -0.850149 -0.850114 -0.850081 -0.850049 -0.850018 -0.84999 -0.849963 -0.849938 -0.849916 -0.849896 
138 -0.850263 -0.85027 -0.850283 -0.850301 -0.850325 -0.850355 -0.850392 -0.850436 -0.850487 -0.850545 
139 -0.847896 -0.847849 -0.847798 -0.847744 -0.847687 -0.847627 -0.847564 -0.847497 -0.847428 -0.847357 
140 -0.850554 -0.850509 -0.850466 -0.850424 -0.850382 -0.850342 -0.850304 -0.850268 -0.850233 -0.850201 
141 -0.854947 -0.854866 -0.854789 -0.854715 -0.854644 -0.854576 -0.854512 -0.854452 -0.854395 -0.854341 
142 -0.842065 -0.842049 -0.842037 -0.84203 -0.842026 -0.842028 -0.842034 -0.842046 -0.842064 -0.842089 
143 -0.855731 -0.855683 -0.855634 -0.855584 -0.855532 -0.85548 -0.855427 -0.855373 -0.855319 -0.855264 
144 -0.850158 -0.850161 -0.850162 -0.85016 -0.850156 -0.85015 -0.850142 -0.850131 -0.850117 -0.850102 
145 -0.843315 -0.843319 -0.843327 -0.843339 -0.843357 -0.84338 -0.843408 -0.843442 -0.843481 -0.843526 
146 -0.853311 -0.853387 -0.853466 -0.853547 -0.85363 -0.853715 -0.853802 -0.853891 -0.853983 -0.854076 
147 -0.855221 -0.855045 -0.854868 -0.854692 -0.854515 -0.854339 -0.854163 -0.853989 -0.853816 -0.853645 
148 -0.845763 -0.845891 -0.846021 -0.846153 -0.846288 -0.846425 -0.846564 -0.846706 -0.84685 -0.846996 
149 -0.854546 -0.854503 -0.854464 -0.854428 -0.854395 -0.854366 -0.854341 -0.854319 -0.854303 -0.85429 
150 -0.862006 -0.862008 -0.862006 -0.862 -0.86199 -0.861977 -0.861959 -0.861938 -0.861912 -0.861883 
151 -0.844751 -0.844739 -0.844726 -0.844714 -0.844704 -0.844694 -0.844685 -0.844677 -0.844671 -0.844667 
152 -0.850881 -0.850861 -0.85084 -0.850819 -0.850798 -0.850777 -0.850756 -0.850735 -0.850715 -0.850695 
153 -0.849083 -0.849197 -0.849315 -0.849435 -0.849557 -0.849682 -0.84981 -0.84994 -0.850071 -0.850205 
154 -0.846785 -0.846837 -0.84689 -0.846942 -0.846994 -0.847045 -0.847095 -0.847144 -0.847193 -0.847239 
155 -0.841174 -0.840992 -0.840809 -0.840624 -0.840438 -0.840252 -0.840066 -0.83988 -0.839696 -0.839512 
156 -0.855677 -0.855656 -0.855638 -0.855621 -0.855607 -0.855595 -0.855586 -0.855581 -0.855578 -0.85558 
157 -0.857043 -0.857043 -0.857045 -0.857051 -0.85706 -0.857073 -0.85709 -0.857112 -0.857139 -0.857171 
158 -0.836326 -0.836128 -0.835936 -0.835749 -0.835568 -0.835394 -0.835226 -0.835065 -0.834912 -0.834767 
159 -0.850235 -0.850196 -0.850157 -0.85012 -0.850084 -0.850051 -0.850019 -0.84999 -0.849963 -0.849939 
160 -0.860801 -0.860825 -0.860847 -0.860867 -0.860886 -0.860902 -0.860918 -0.860932 -0.860945 -0.860958 
161 -0.835185 -0.835148 -0.835112 -0.835077 -0.835043 -0.83501 -0.834978 -0.834946 -0.834916 -0.834886 
162 -0.844775 -0.844861 -0.844951 -0.845044 -0.845141 -0.845241 -0.845345 -0.845452 -0.845562 -0.845675 
163 -0.837964 -0.837751 -0.837537 -0.83732 -0.837102 -0.836882 -0.836661 -0.836438 -0.836214 -0.835989 
164 -0.855601 -0.855606 -0.855614 -0.855625 -0.855639 -0.855657 -0.855678 -0.855702 -0.855731 -0.855764 
165 -0.858936 -0.858889 -0.858845 -0.858806 -0.858772 -0.858744 -0.858722 -0.858708 -0.858701 -0.858702 
166 -0.833448 -0.83334 -0.83323 -0.83312 -0.833008 -0.832896 -0.832783 -0.832669 -0.832554 -0.832438 
167 -0.850903 -0.85094 -0.850981 -0.851025 -0.851073 -0.851125 -0.851181 -0.851241 -0.851305 -0.851374 
168 -0.836969 -0.836995 -0.837024 -0.837057 -0.837094 -0.837134 -0.837177 -0.837224 -0.837274 -0.837327 
169 -0.860022 -0.860017 -0.860016 -0.860019 -0.860026 -0.860038 -0.860056 -0.860079 -0.860107 -0.860143 
170 -0.861024 -0.861018 -0.861014 -0.861012 -0.861012 -0.861015 -0.861019 -0.861027 -0.861036 -0.861049 
171 -0.861435 -0.861405 -0.861377 -0.861353 -0.861334 -0.861319 -0.861308 -0.861303 -0.861304 -0.86131 
172 -0.838654 -0.838541 -0.83843 -0.83832 -0.838212 -0.838106 -0.838002 -0.8379 -0.8378 -0.837703 
173 -0.850156 -0.850123 -0.85009 -0.850059 -0.85003 -0.850002 -0.849976 -0.849951 -0.84993 -0.84991 
174 -0.858913 -0.859016 -0.859124 -0.859234 -0.859347 -0.859463 -0.85958 -0.8597 -0.859821 -0.859943 
175 -0.868184 -0.868268 -0.868356 -0.868448 -0.868541 -0.868638 -0.868736 -0.868837 -0.868938 -0.869041 
176 -0.841459 -0.841455 -0.841452 -0.841451 -0.841452 -0.841453 -0.841456 -0.84146 -0.841464 -0.841469 
177 -0.831 -0.830891 -0.830785 -0.830682 -0.830583 -0.830489 -0.830399 -0.830315 -0.830237 -0.830166 
178 -0.866574 -0.866706 -0.866842 -0.866979 -0.867119 -0.867259 -0.867401 -0.867543 -0.867684 -0.867824 
179 -0.850156 -0.850123 -0.85009 -0.850059 -0.85003 -0.850002 -0.849976 -0.849951 -0.84993 -0.84991 
180 -0.846745 -0.846871 -0.846997 -0.847123 -0.847247 -0.847369 -0.847488 -0.847604 -0.847716 -0.847823 
181 -0.869687 -0.86969 -0.869697 -0.869708 -0.869722 -0.869739 -0.86976 -0.869784 -0.869812 -0.869843 
182 -0.824662 -0.824579 -0.824496 -0.824413 -0.824331 -0.824249 -0.824168 -0.824088 -0.82401 -0.823934 
183 -0.834002 -0.834045 -0.834084 -0.83412 -0.834152 -0.834181 -0.834205 -0.834225 -0.83424 -0.83425 
184 -0.831884 -0.831794 -0.83171 -0.831633 -0.831564 -0.831502 -0.831448 -0.831402 -0.831364 -0.831334 
185 -0.873038 -0.873114 -0.873192 -0.873269 -0.873347 -0.873425 -0.873501 -0.873577 -0.873651 -0.873723 
186 -0.883984 -0.884149 -0.884317 -0.884487 -0.884657 -0.884827 -0.884996 -0.885163 -0.885327 -0.885488 
187 -0.830642 -0.830532 -0.830423 -0.830315 -0.830211 -0.83011 -0.830013 -0.829921 -0.829836 -0.829758 
188 -0.858556 -0.858683 -0.85881 -0.858934 -0.859055 -0.859171 -0.859282 -0.859386 -0.859483 -0.859572 
189 -0.881457 -0.881621 -0.881785 -0.881948 -0.882108 -0.882265 -0.882418 -0.882564 -0.882704 -0.882836 
190 -0.845795 -0.845801 -0.84581 -0.845822 -0.845838 -0.845857 -0.84588 -0.845907 -0.845938 -0.845973 
191 -0.850156 -0.850123 -0.85009 -0.850059 -0.85003 -0.850002 -0.849976 -0.849951 -0.84993 -0.84991 
192 -0.805088 -0.805092 -0.80509 -0.805082 -0.80507 -0.805051 -0.805027 -0.804997 -0.804962 -0.80492 
193 -0.850156 -0.850123 -0.85009 -0.850059 -0.85003 -0.850002 -0.849976 -0.849951 -0.84993 -0.84991 
194 -0.858693 -0.858584 -0.858477 -0.858373 -0.858274 -0.858179 -0.85809 -0.858008 -0.857933 -0.857865 
195 -0.847138 -0.847188 -0.847239 -0.847289 -0.847338 -0.847385 -0.847428 -0.847467 -0.847501 -0.847528 
196 -0.84321 -0.843052 -0.842893 -0.842734 -0.842575 -0.842415 -0.842256 -0.842098 -0.84194 -0.841783 
197 -0.847046 -0.847104 -0.847164 -0.847226 -0.84729 -0.847357 -0.847426 -0.847497 -0.847571 -0.847647 
198 -0.850156 -0.850123 -0.85009 -0.850059 -0.85003 -0.850002 -0.849976 -0.849951 -0.84993 -0.84991 
199 -0.791562 -0.791436 -0.791301 -0.791159 -0.791009 -0.790853 -0.790691 -0.790524 -0.790353 -0.790178 
200 -0.826206 -0.826224 -0.826241 -0.826257 -0.826271 -0.826284 -0.826294 -0.8263 -0.826302 -0.826299 
201 -0.900385 -0.900524 -0.900662 -0.900798 -0.900931 -0.901059 -0.901181 -0.901296 -0.901402 -0.901498 
202 -0.850156 -0.850123 -0.85009 -0.850059 -0.85003 -0.850002 -0.849976 -0.849951 -0.84993 -0.84991 
203 -0.86791 -0.867814 -0.867719 -0.867624 -0.867531 -0.867438 -0.867348 -0.867261 -0.867176 -0.867095 
204 -0.854071 -0.854153 -0.854237 -0.854323 -0.85441 -0.8545 -0.854592 -0.854686 -0.854781 -0.854879 
205 -0.891698 -0.891832 -0.891969 -0.892108 -0.892249 -0.89239 -0.892531 -0.892672 -0.89281 -0.892946 
206 -0.850156 -0.850123 -0.85009 -0.850059 -0.85003 -0.850002 -0.849976 -0.849951 -0.84993 -0.84991 
207 -0.769425 -0.769359 -0.769289 -0.769213 -0.769132 -0.769047 -0.768958 -0.768865 -0.768768 -0.768667 
208 -0.851987 -0.852038 -0.852089 -0.852137 -0.852181 -0.852222 -0.852256 -0.852284 -0.852304 -0.852316 
209 -0.886648 -0.88673 -0.886818 -0.886911 -0.887008 -0.887109 -0.887212 -0.887317 -0.887424 -0.887531 
210 -0.91008 -0.910144 -0.910208 -0.910268 -0.910325 -0.910377 -0.910422 -0.910461 -0.910491 -0.910512 
211 -0.850156 -0.850123 -0.85009 -0.850059 -0.85003 -0.850002 -0.849976 -0.849951 -0.84993 -0.84991 
212 -0.850156 -0.850123 -0.85009 -0.850059 -0.85003 -0.850002 -0.849976 -0.849951 -0.84993 -0.84991 
213 -0.844259 -0.844174 -0.844085 -0.843995 -0.843901 -0.843805 -0.843707 -0.843607 -0.843503 -0.843398 
214 -0.756641 -0.756534 -0.75642 -0.756297 -0.756168 -0.756032 -0.75589 -0.755743 -0.755592 -0.755437 
215 -0.784263 -0.784215 -0.784172 -0.784135 -0.784103 -0.784075 -0.784051 -0.784031 -0.784012 -0.783996 
216 -0.79331 -0.793338 -0.793373 -0.793414 -0.793461 -0.793511 -0.793564 -0.793618 -0.793673 -0.793727 
217 -0.858727 -0.858813 -0.8589 -0.858988 -0.859078 -0.859168 -0.859261 -0.859354 -0.85945 -0.859547 
218 -0.831853 -0.831844 -0.831842 -0.831847 -0.831856 -0.83187 -0.831887 -0.831906 -0.831926 -0.831945 
219 -0.850165 -0.85013 -0.850096 -0.850064 -0.850033 -0.850003 -0.849976 -0.849951 -0.849928 -0.849907 
220 -0.943354 -0.94338 -0.943407 -0.943434 -0.943461 -0.943485 -0.943507 -0.943527 -0.943542 -0.943552 
221 -0.779006 -0.778924 -0.778846 -0.778772 -0.778701 -0.778633 -0.778568 -0.778507 -0.778447 -0.77839 
222 -0.722633 -0.722594 -0.722562 -0.722534 -0.722512 -0.722494 -0.722479 -0.722466 -0.722455 -0.722444 
223 -0.894524 -0.89453 -0.894544 -0.894563 -0.894589 -0.894619 -0.894652 -0.894689 -0.894726 -0.894765 
224 -0.916663 -0.916762 -0.916863 -0.916965 -0.917066 -0.917166 -0.917264 -0.917358 -0.917448 -0.917533 
225 -0.831281 -0.831218 -0.831154 -0.831091 -0.831029 -0.830968 -0.830911 -0.830857 -0.830807 -0.830762 
226 -0.797705 -0.797608 -0.797507 -0.7974 -0.797288 -0.79717 -0.797047 -0.796919 -0.796786 -0.796649 
227 -0.877106 -0.877052 -0.877009 -0.876976 -0.876953 -0.876941 -0.876938 -0.876943 -0.876956 -0.876977 
228 -0.820253 -0.820171 -0.820086 -0.819999 -0.819911 -0.819821 -0.819732 -0.819643 -0.819556 -0.819471 
229 -0.850156 -0.850123 -0.85009 -0.850059 -0.85003 -0.850002 -0.849976 -0.849951 -0.84993 -0.84991 
230 -0.850156 -0.850123 -0.85009 -0.850059 -0.85003 -0.850002 -0.849976 -0.849951 -0.84993 -0.84991 
231 -0.850156 -0.850123 -0.85009 -0.850059 -0.85003 -0.850002 -0.849976 -0.849951 -0.84993 -0.84991 
232 -1.08206 -1.08208 -1.0821 -1.08214 -1.08218 -1.08222 -1.08226 -1.08231 -1.08235 -1.08239 
233 -0.850155 -0.850122 -0.850089 -0.850058 -0.850029 -0.850001 -0.849975 -0.849951 -0.849929 -0.849909 
234 -0.977352 -0.977353 -0.977356 -0.977359 -0.977363 -0.977366 -0.977367 -0.977367 -0.977364 -0.977358 
235 -0.628525 -0.628381 -0.628255 -0.628149 -0.628061 -0.627993 -0.627945 -0.627915 -0.627904 -0.62791 
236 -0.908025 -0.908119 -0.908216 -0.908315 -0.908416 -0.908516 -0.908616 -0.908715 -0.908811 -0.908905 
237 -1.09757 -1.09756 -1.09756 -1.09757 -1.09758 -1.0976 -1.09762 -1.09765 -1.09767 -1.0977 
238 -0.850368 -0.85033 -0.850293 -0.850257 -0.850223 -0.85019 -0.850159 -0.85013 -0.850104 -0.850079 
239 -0.68914 -0.688999 -0.68888 -0.688785 -0.688715 -0.688669 -0.688647 -0.688649 -0.688673 -0.688718 
240 -0.756685 -0.75658 -0.756469 -0.756353 -0.756231 -0.756103 -0.75597 -0.755833 -0.755693 -0.755549 
241 -0.71802 -0.717907 -0.717794 -0.717684 -0.717574 -0.717467 -0.717362 -0.717259 -0.717159 -0.717062 
242 -0.850156 -0.850123 -0.85009 -0.850059 -0.85003 -0.850002 -0.849976 -0.849952 -0.84993 -0.84991 
243 -0.984674 -0.984662 -0.984651 -0.984639 -0.984626 -0.984613 -0.984597 -0.98458 -0.98456 -0.984537 
244 -1.11093 -1.111 -1.11107 -1.11115 -1.11123 -1.11132 -1.11141 -1.1115 -1.11159 -1.11167 
245 -0.504042 -0.503887 -0.503738 -0.503595 -0.503461 -0.503338 -0.503226 -0.503127 -0.503043 -0.502974 
246 -1.04422 -1.04427 -1.04433 -1.0444 -1.04446 -1.04454 -1.04461 -1.04468 -1.04476 -1.04483 
247 -0.840737 -0.840481 -0.84023 -0.839983 -0.83974 -0.839503 -0.839272 -0.839047 -0.838828 -0.838617 
248 -0.850156 -0.850123 -0.85009 -0.850059 -0.85003 -0.850002 -0.849976 -0.849951 -0.84993 -0.84991 
249 -0.592767 -0.592623 -0.592484 -0.592354 -0.592231 -0.592117 -0.592013 -0.591919 -0.591836 -0.591763 
250 -0.810621 -0.810528 -0.81043 -0.810327 -0.810218 -0.810105 -0.809986 -0.809863 -0.809737 -0.809608 
251 -0.764287 -0.764227 -0.764157 -0.764074 -0.76398 -0.763875 -0.763759 -0.763632 -0.763496 -0.763352 
252 -0.729924 -0.729792 -0.729662 -0.729535 -0.729411 -0.72929 -0.729174 -0.729063 -0.728956 -0.728855 
253 -0.850156 -0.850123 -0.85009 -0.850059 -0.85003 -0.850002 -0.849976 -0.849951 -0.84993 -0.84991 
254 -0.880552 -0.880557 -0.880562 -0.880569 -0.880576 -0.880584 -0.880591 -0.880598 -0.880605 -0.880611 
255 -0.850152 -0.850118 -0.850086 -0.850055 -0.850026 -0.849998 -0.849972 -0.849948 -0.849926 -0.849907 
256 -0.859179 -0.859181 -0.859187 -0.859196 -0.859211 -0.859231 -0.859257 -0.859288 -0.859326 -0.859371 
257 -1.04335 -1.04336 -1.04337 -1.0434 -1.04343 -1.04348 -1.04353 -1.04359 -1.04366 -1.04374 
258 -0.823836 -0.823745 -0.823651 -0.823556 -0.82346 -0.823364 -0.823269 -0.823177 -0.823089 -0.823005 
259 -0.868885 -0.868725 -0.868567 -0.868411 -0.868259 -0.86811 -0.867965 -0.867825 -0.867691 -0.867563 
260 -0.617232 -0.617175 -0.617115 -0.617052 -0.616986 -0.616918 -0.616847 -0.616775 -0.616701 -0.616627 
261 -0.991979 -0.991941 -0.991905 -0.991868 -0.991832 -0.991797 -0.991761 -0.991726 -0.99169 -0.991655 
262 -1.02431 -1.02431 -1.02431 -1.02432 -1.02433 -1.02434 -1.02435 -1.02437 -1.02439 -1.02441 
263 -0.850156 -0.850123 -0.850091 -0.850059 -0.85003 -0.850002 -0.849976 -0.849952 -0.84993 -0.84991 
264 -0.837438 -0.837434 -0.837432 -0.837435 -0.837442 -0.837454 -0.83747 -0.837493 -0.83752 -0.837553 
265 -0.702622 -0.702513 -0.702405 -0.702299 -0.702196 -0.702094 -0.701994 -0.701897 -0.701802 -0.701709 
266 -0.661665 -0.661552 -0.66144 -0.661328 -0.661219 -0.661111 -0.661008 -0.660909 -0.660815 -0.660727 
267 -0.909267 -0.909251 -0.90923 -0.909203 -0.90917 -0.909133 -0.90909 -0.909042 -0.908991 -0.908936 
268 -0.84854 -0.84864 -0.848734 -0.848822 -0.848902 -0.848975 -0.84904 -0.849096 -0.849143 -0.84918 
269 -0.850156 -0.850123 -0.85009 -0.850059 -0.85003 -0.850002 -0.849976 -0.849951 -0.84993 -0.84991 
270 -1.00505 -1.00501 -1.00496 -1.00492 -1.00488 -1.00485 -1.00481 -1.00478 -1.00475 -1.00472 
271 -0.965076 -0.965028 -0.964978 -0.964925 -0.96487 -0.964812 -0.964752 -0.96469 -0.964626 -0.964561 
272 -0.683742 -0.683767 -0.683802 -0.683847 -0.683899 -0.683956 -0.684017 -0.684079 -0.68414 -0.684199 
273 -0.768634 -0.768594 -0.768555 -0.768519 -0.768482 -0.768445 -0.768407 -0.768366 -0.768322 -0.768274 
274 -0.728521 -0.728439 -0.728356 -0.728272 -0.728186 -0.728099 -0.72801 -0.72792 -0.727829 -0.727737 
275 -0.849971 -0.849956 -0.849942 -0.849928 -0.849916 -0.849905 -0.849896 -0.849888 -0.849882 -0.849878 
276 -0.976582 -0.976548 -0.976516 -0.976486 -0.976459 -0.976435 -0.976413 -0.976395 -0.97638 -0.976369 
277 -0.850156 -0.850123 -0.85009 -0.850059 -0.85003 -0.850002 -0.849976 -0.849951 -0.84993 -0.84991 
278 -0.709643 -0.709606 -0.709565 -0.70952 -0.709472 -0.709419 -0.709361 -0.7093 -0.709234 -0.709164 
279 -0.759177 -0.759113 -0.759048 -0.758981 -0.758912 -0.758839 -0.758762 -0.758682 -0.758596 -0.758507 
280 -0.936452 -0.936376 -0.936293 -0.936206 -0.936114 -0.936018 -0.935918 -0.935816 -0.935711 -0.935605 
281 -0.817247 -0.817082 -0.816927 -0.816783 -0.816649 -0.816527 -0.816417 -0.816318 -0.816231 -0.816156 
282 -0.939478 -0.939455 -0.939424 -0.939384 -0.939333 -0.939273 -0.939202 -0.939121 -0.939031 -0.938932 
283 -0.894971 -0.894889 -0.894804 -0.894716 -0.894626 -0.894534 -0.89444 -0.894347 -0.894253 -0.894161 
284 -0.79352 -0.793419 -0.793325 -0.793239 -0.793159 -0.793084 -0.793015 -0.79295 -0.792887 -0.792827 
285 -0.739621 -0.739513 -0.739432 -0.73938 -0.73936 -0.739373 -0.739419 -0.739498 -0.739609 -0.73975 
286 -0.850156 -0.850123 -0.85009 -0.850059 -0.85003 -0.850002 -0.849976 -0.849951 -0.84993 -0.84991 
287 -0.775895 -0.775755 -0.775617 -0.775481 -0.775347 -0.775218 -0.775094 -0.774977 -0.774866 -0.774765 
288 -0.926124 -0.926075 -0.926021 -0.925964 -0.925902 -0.925836 -0.925767 -0.925695 -0.925621 -0.925545 
289 -0.829865 -0.829675 -0.829489 -0.829309 -0.829137 -0.828974 -0.828824 -0.828686 -0.828564 -0.828457 
290 -0.916299 -0.916224 -0.916142 -0.916055 -0.915962 -0.915865 -0.915762 -0.915655 -0.915545 -0.915431 
291 -0.764028 -0.763969 -0.763915 -0.763868 -0.763827 -0.763793 -0.763766 -0.763746 -0.763731 -0.763722 