VARIABLES = "Cell" "Mode 0" "Mode 1" "Mode 2" "Mode 3" "Mode 4" "Mode 5" "Mode 6" "Mode 7" "Mode 8" "Mode 9" 
ZONE T = Iteration9
0 -0.859501 -0.859633 -0.859771 -0.859884 -0.859849 -0.859594 -0.859148 -0.85852 -0.857607 -0.855955 
1 -0.859501 -0.859633 -0.859771 -0.859884 -0.859849 -0.859594 -0.859148 -0.85852 -0.857607 -0.855955 
2 -0.859501 -0.859633 -0.859771 -0.859884 -0.859849 -0.859594 -0.859148 -0.85852 -0.857607 -0.855955 
3 -0.859501 -0.859633 -0.859771 -0.859884 -0.859849 -0.859594 -0.859148 -0.85852 -0.857607 -0.855955 
4 -0.859501 -0.859633 -0.859771 -0.859884 -0.859849 -0.859594 -0.859148 -0.85852 -0.857607 -0.855955 
5 -0.859501 -0.859633 -0.859771 -0.859884 -0.859849 -0.859594 -0.859148 -0.85852 -0.857607 -0.855955 
6 -0.859501 -0.859633 -0.859771 -0.859884 -0.859849 -0.859594 -0.859148 -0.85852 -0.857607 -0.855955 
7 -0.859501 -0.859633 -0.859771 -0.859884 -0.859849 -0.859594 -0.859148 -0.85852 -0.857607 -0.855955 
8 -0.859501 -0.859633 -0.859771 -0.859884 -0.859849 -0.859594 -0.859148 -0.85852 -0.857607 -0.855955 
9 -0.859501 -0.859633 -0.859771 -0.859884 -0.859849 -0.859594 -0.859148 -0.85852 -0.857607 -0.855955 
10 -0.859501 -0.859633 -0.859771 -0.859884 -0.859849 -0.859594 -0.859148 -0.85852 -0.857607 -0.855955 
11 -0.859501 -0.859633 -0.859771 -0.859884 -0.859849 -0.859594 -0.859148 -0.85852 -0.857607 -0.855955 
12 -0.859501 -0.859633 -0.859771 -0.859884 -0.859849 -0.859594 -0.859148 -0.85852 -0.857607 -0.855955 
13 -0.859501 -0.859633 -0.859771 -0.859884 -0.859849 -0.859594 -0.859148 -0.85852 -0.857607 -0.855955 
14 -0.859501 -0.859633 -0.859771 -0.859884 -0.859849 -0.859594 -0.859148 -0.85852 -0.857607 -0.855955 
15 -0.859501 -0.859633 -0.859771 -0.859884 -0.859849 -0.859594 -0.859148 -0.85852 -0.857607 -0.855955 
16 -0.859501 -0.859633 -0.859771 -0.859884 -0.859849 -0.859594 -0.859148 -0.85852 -0.857607 -0.855955 
17 -0.859501 -0.859633 -0.859771 -0.859884 -0.859849 -0.859594 -0.859148 -0.85852 -0.857607 -0.855955 
18 -0.859501 -0.859633 -0.859771 -0.859884 -0.859849 -0.859594 -0.859148 -0.85852 -0.857607 -0.855955 
19 -0.859501 -0.859633 -0.859771 -0.859884 -0.859849 -0.859594 -0.859148 -0.85852 -0.857607 -0.855955 
20 -0.859501 -0.859633 -0.859771 -0.859884 -0.859849 -0.859594 -0.859148 -0.85852 -0.857607 -0.855955 
21 -0.859501 -0.859633 -0.859771 -0.859884 -0.859849 -0.859594 -0.859148 -0.85852 -0.857607 -0.855955 
22 -0.859501 -0.859633 -0.859771 -0.859884 -0.859849 -0.859594 -0.859148 -0.85852 -0.857607 -0.855955 
23 -0.859501 -0.859633 -0.859771 -0.859884 -0.859849 -0.859594 -0.859148 -0.85852 -0.857607 -0.855955 
24 -0.859501 -0.859633 -0.859771 -0.859884 -0.859849 -0.859594 -0.859148 -0.85852 -0.857607 -0.855955 
25 -0.859501 -0.859633 -0.859771 -0.859884 -0.859849 -0.859594 -0.859148 -0.85852 -0.857607 -0.855955 
26 -0.859501 -0.859633 -0.859771 -0.859884 -0.859849 -0.859594 -0.859148 -0.85852 -0.857607 -0.855955 
27 -0.859501 -0.859633 -0.859771 -0.859884 -0.859849 -0.859594 -0.859148 -0.85852 -0.857607 -0.855955 
28 -0.859501 -0.859633 -0.859771 -0.859884 -0.859849 -0.859594 -0.859148 -0.85852 -0.857607 -0.855955 
29 -0.859501 -0.859633 -0.859771 -0.859884 -0.859849 -0.859594 -0.859148 -0.85852 -0.857607 -0.855955 
30 -0.859501 -0.859633 -0.859771 -0.859884 -0.859849 -0.859594 -0.859148 -0.85852 -0.857607 -0.855955 
31 -0.859501 -0.859633 -0.859771 -0.859884 -0.859849 -0.859594 -0.859148 -0.85852 -0.857607 -0.855955 
32 -0.859501 -0.859633 -0.859771 -0.859884 -0.859849 -0.859594 -0.859148 -0.85852 -0.857607 -0.855955 
33 -0.859501 -0.859633 -0.859771 -0.859884 -0.859849 -0.859594 -0.859148 -0.85852 -0.857607 -0.855955 
34 -0.859501 -0.859633 -0.859771 -0.859884 -0.859849 -0.859594 -0.859148 -0.85852 -0.857607 -0.855955 
35 -0.859501 -0.859633 -0.859771 -0.859884 -0.859849 -0.859594 -0.859148 -0.85852 -0.857607 -0.855955 
36 -0.859501 -0.859633 -0.859771 -0.859884 -0.859849 -0.859594 -0.859148 -0.85852 -0.857607 -0.855955 
37 -0.859501 -0.859633 -0.859771 -0.859884 -0.859849 -0.859594 -0.859148 -0.85852 -0.857607 -0.855955 
38 -0.859501 -0.859633 -0.859771 -0.859884 -0.859849 -0.859594 -0.859148 -0.85852 -0.857607 -0.855955 
39 -0.859501 -0.859633 -0.859771 -0.859884 -0.859849 -0.859594 -0.859148 -0.85852 -0.857607 -0.855955 
40 -0.859501 -0.859633 -0.859771 -0.859884 -0.859849 -0.859594 -0.859148 -0.85852 -0.857607 -0.855955 
41 -0.859501 -0.859633 -0.859771 -0.859884 -0.859849 -0.859594 -0.859148 -0.85852 -0.857607 -0.855955 
42 -0.859501 -0.859633 -0.859771 -0.859884 -0.859849 -0.859594 -0.859148 -0.85852 -0.857607 -0.855955 
43 -0.859501 -0.859633 -0.859771 -0.859884 -0.859849 -0.859594 -0.859148 -0.85852 -0.857607 -0.855955 
44 -0.859501 -0.859633 -0.859771 -0.859884 -0.859849 -0.859594 -0.859148 -0.85852 -0.857607 -0.855955 
45 -0.859501 -0.859633 -0.859771 -0.859884 -0.859849 -0.859594 -0.859148 -0.85852 -0.857607 -0.855955 
46 -0.859501 -0.859633 -0.859771 -0.859884 -0.859849 -0.859594 -0.859148 -0.85852 -0.857607 -0.855955 
47 -0.859501 -0.859633 -0.859771 -0.859884 -0.859849 -0.859594 -0.859148 -0.85852 -0.857607 -0.855955 
48 -0.859501 -0.859633 -0.859771 -0.859884 -0.859849 -0.859594 -0.859148 -0.85852 -0.857607 -0.855955 
49 -0.859501 -0.859633 -0.859771 -0.859884 -0.859849 -0.859594 -0.859148 -0.85852 -0.857607 -0.855955 
50 -0.859501 -0.859633 -0.859771 -0.859884 -0.859849 -0.859594 -0.859148 -0.85852 -0.857607 -0.855955 
51 -0.859501 -0.859633 -0.859771 -0.859884 -0.859849 -0.859594 -0.859148 -0.85852 -0.857607 -0.855955 
52 -0.859501 -0.859633 -0.859771 -0.859884 -0.859849 -0.859594 -0.859148 -0.85852 -0.857607 -0.855955 
53 -0.859501 -0.859633 -0.859771 -0.859884 -0.859849 -0.859594 -0.859148 -0.85852 -0.857607 -0.855955 
54 -0.859501 -0.859633 -0.859771 -0.859884 -0.859849 -0.859594 -0.859148 -0.85852 -0.857607 -0.855955 
55 -0.859501 -0.859633 -0.859771 -0.859884 -0.859849 -0.859594 -0.859148 -0.85852 -0.857607 -0.855955 
56 -0.859501 -0.859633 -0.859771 -0.859884 -0.859849 -0.859594 -0.859148 -0.85852 -0.857607 -0.855955 
57 -0.859501 -0.859633 -0.859771 -0.859884 -0.859849 -0.859594 -0.859148 -0.85852 -0.857607 -0.855955 
58 -0.859501 -0.859633 -0.859771 -0.859884 -0.859849 -0.859594 -0.859148 -0.85852 -0.857607 -0.855955 
59 -0.859501 -0.859633 -0.859771 -0.859884 -0.859849 -0.859594 -0.859148 -0.85852 -0.857607 -0.855955 
60 -0.859501 -0.859633 -0.859771 -0.859884 -0.859849 -0.859594 -0.859148 -0.85852 -0.857607 -0.855955 
61 -0.859501 -0.859633 -0.859771 -0.859884 -0.859849 -0.859594 -0.859148 -0.85852 -0.857607 -0.855955 
62 -0.859501 -0.859633 -0.859771 -0.859884 -0.859849 -0.859594 -0.859148 -0.85852 -0.857607 -0.855955 
63 -0.859501 -0.859633 -0.859771 -0.859884 -0.859849 -0.859594 -0.859148 -0.85852 -0.857607 -0.855955 
64 -0.859501 -0.859633 -0.859771 -0.859884 -0.859849 -0.859594 -0.859148 -0.85852 -0.857607 -0.855955 
65 -0.859501 -0.859633 -0.859771 -0.859884 -0.859849 -0.859594 -0.859148 -0.85852 -0.857607 -0.855955 
66 -0.859501 -0.859633 -0.859771 -0.859884 -0.859849 -0.859594 -0.859148 -0.85852 -0.857607 -0.855955 
67 -0.859501 -0.859633 -0.859771 -0.859884 -0.859849 -0.859594 -0.859148 -0.85852 -0.857607 -0.855955 
68 -0.859501 -0.859633 -0.859771 -0.859884 -0.859849 -0.859594 -0.859148 -0.85852 -0.857607 -0.855955 
69 -0.859501 -0.859633 -0.859771 -0.859884 -0.859849 -0.859594 -0.859148 -0.85852 -0.857607 -0.855955 
70 -0.859501 -0.859633 -0.859771 -0.859884 -0.859849 -0.859594 -0.859148 -0.85852 -0.857607 -0.855955 
71 -0.859501 -0.859633 -0.859771 -0.859884 -0.859849 -0.859594 -0.859148 -0.85852 -0.857607 -0.855955 
72 -0.859501 -0.859633 -0.859771 -0.859884 -0.859849 -0.859594 -0.859148 -0.85852 -0.857607 -0.855955 
73 -0.859501 -0.859633 -0.859771 -0.859884 -0.859849 -0.859594 -0.859148 -0.85852 -0.857607 -0.855955 
74 -0.859501 -0.859633 -0.859771 -0.859884 -0.859849 -0.859594 -0.859148 -0.85852 -0.857607 -0.855955 
75 -0.859501 -0.859633 -0.859771 -0.859884 -0.859849 -0.859594 -0.859148 -0.85852 -0.857607 -0.855955 
76 -0.859501 -0.859633 -0.859771 -0.859884 -0.859849 -0.859594 -0.859148 -0.85852 -0.857607 -0.855955 
77 -0.859501 -0.859633 -0.859771 -0.859884 -0.859849 -0.859594 -0.859148 -0.85852 -0.857607 -0.855955 
78 -0.859501 -0.859633 -0.859771 -0.859884 -0.859849 -0.859594 -0.859148 -0.85852 -0.857607 -0.855955 
79 -0.859501 -0.859633 -0.859771 -0.859884 -0.859849 -0.859594 -0.859148 -0.85852 -0.857607 -0.855955 
80 -0.859501 -0.859633 -0.859771 -0.859884 -0.859849 -0.859594 -0.859148 -0.85852 -0.857607 -0.855955 
81 -0.859501 -0.859633 -0.859771 -0.859884 -0.859849 -0.859594 -0.859148 -0.85852 -0.857607 -0.855955 
82 -0.859501 -0.859633 -0.859771 -0.859884 -0.859849 -0.859594 -0.859148 -0.85852 -0.857607 -0.855955 
83 -0.859501 -0.859633 -0.859771 -0.859884 -0.859849 -0.859594 -0.859148 -0.85852 -0.857607 -0.855955 
84 -0.859501 -0.859633 -0.859771 -0.859884 -0.859849 -0.859594 -0.859148 -0.85852 -0.857607 -0.855955 
85 -0.859501 -0.859633 -0.859771 -0.859884 -0.859849 -0.859594 -0.859148 -0.85852 -0.857607 -0.855955 
86 -0.859501 -0.859633 -0.859771 -0.859884 -0.859849 -0.859594 -0.859148 -0.85852 -0.857607 -0.855955 
87 -0.859501 -0.859633 -0.859771 -0.859884 -0.859849 -0.859594 -0.859148 -0.85852 -0.857607 -0.855955 
88 -0.859501 -0.859633 -0.859771 -0.859884 -0.859849 -0.859594 -0.859148 -0.85852 -0.857607 -0.855955 
89 -0.859501 -0.859633 -0.859771 -0.859884 -0.859849 -0.859594 -0.859148 -0.85852 -0.857607 -0.855955 
90 -0.859501 -0.859633 -0.859771 -0.859884 -0.859849 -0.859594 -0.859148 -0.85852 -0.857607 -0.855955 
91 -0.859501 -0.859633 -0.859771 -0.859884 -0.859849 -0.859594 -0.859148 -0.85852 -0.857607 -0.855955 
92 -0.859501 -0.859633 -0.859771 -0.859884 -0.859849 -0.859594 -0.859148 -0.85852 -0.857607 -0.855955 
93 -0.859501 -0.859633 -0.859771 -0.859884 -0.859849 -0.859594 -0.859148 -0.85852 -0.857607 -0.855955 
94 -0.859501 -0.859633 -0.859771 -0.859884 -0.859849 -0.859594 -0.859148 -0.85852 -0.857607 -0.855955 
95 -0.859501 -0.859633 -0.859771 -0.859884 -0.859849 -0.859594 -0.859148 -0.85852 -0.857607 -0.855955 
96 -0.859501 -0.859633 -0.859771 -0.859884 -0.859849 -0.859594 -0.859148 -0.85852 -0.857607 -0.855955 
97 -0.859501 -0.859633 -0.859771 -0.859884 -0.859849 -0.859594 -0.859148 -0.85852 -0.857607 -0.855955 
98 -0.859501 -0.859633 -0.859771 -0.859884 -0.859849 -0.859594 -0.859148 -0.85852 -0.857607 -0.855955 
99 -0.859501 -0.859633 -0.859771 -0.859884 -0.859849 -0.859594 -0.859148 -0.85852 -0.857607 -0.855955 
100 -0.859501 -0.859633 -0.859771 -0.859884 -0.859849 -0.859594 -0.859148 -0.85852 -0.857607 -0.855955 
101 -0.859501 -0.859633 -0.859771 -0.859884 -0.859849 -0.859594 -0.859148 -0.85852 -0.857607 -0.855955 
102 -0.859501 -0.859633 -0.859771 -0.859884 -0.859849 -0.859594 -0.859148 -0.85852 -0.857607 -0.855955 
103 -0.859501 -0.859633 -0.859771 -0.859884 -0.859849 -0.859594 -0.859148 -0.85852 -0.857607 -0.855955 
104 -0.859501 -0.859633 -0.859771 -0.859884 -0.859849 -0.859594 -0.859148 -0.85852 -0.857607 -0.855955 
105 -0.859501 -0.859633 -0.859771 -0.859884 -0.859849 -0.859594 -0.859148 -0.85852 -0.857607 -0.855955 
106 -0.859501 -0.859633 -0.859771 -0.859884 -0.859849 -0.859594 -0.859148 -0.85852 -0.857607 -0.855955 
107 -0.859501 -0.859633 -0.859771 -0.859884 -0.859849 -0.859594 -0.859148 -0.85852 -0.857607 -0.855955 
108 -0.859501 -0.859633 -0.859771 -0.859884 -0.859849 -0.859594 -0.859148 -0.85852 -0.857607 -0.855955 
109 -0.859501 -0.859633 -0.859771 -0.859884 -0.859849 -0.859594 -0.859148 -0.85852 -0.857607 -0.855955 
110 -0.859501 -0.859633 -0.859771 -0.859884 -0.859849 -0.859594 -0.859148 -0.85852 -0.857607 -0.855955 
111 -0.859501 -0.859633 -0.859771 -0.859884 -0.859849 -0.859594 -0.859148 -0.85852 -0.857607 -0.855955 
112 -0.859501 -0.859633 -0.859771 -0.859884 -0.859849 -0.859594 -0.859148 -0.85852 -0.857607 -0.855955 
113 -0.859501 -0.859633 -0.859771 -0.859884 -0.859849 -0.859594 -0.859148 -0.85852 -0.857607 -0.855955 
114 -0.859501 -0.859633 -0.859771 -0.859884 -0.859849 -0.859594 -0.859148 -0.85852 -0.857607 -0.855955 
115 -0.859501 -0.859633 -0.859771 -0.859884 -0.859849 -0.859594 -0.859148 -0.85852 -0.857607 -0.855955 
116 -0.859501 -0.859633 -0.859771 -0.859884 -0.859849 -0.859594 -0.859148 -0.85852 -0.857607 -0.855955 
117 -0.859501 -0.859633 -0.859771 -0.859884 -0.859849 -0.859594 -0.859148 -0.85852 -0.857607 -0.855955 
118 -0.859501 -0.859633 -0.859771 -0.859884 -0.859849 -0.859594 -0.859148 -0.85852 -0.857607 -0.855955 
119 -0.859501 -0.859633 -0.859771 -0.859884 -0.859849 -0.859594 -0.859148 -0.85852 -0.857607 -0.855955 
120 -0.859501 -0.859633 -0.859771 -0.859884 -0.859849 -0.859594 -0.859148 -0.85852 -0.857607 -0.855955 
121 -0.859501 -0.859633 -0.859771 -0.859884 -0.859849 -0.859594 -0.859148 -0.85852 -0.857607 -0.855955 
122 -0.859501 -0.859633 -0.859771 -0.859884 -0.859849 -0.859594 -0.859148 -0.85852 -0.857607 -0.855955 
123 -0.859501 -0.859633 -0.859771 -0.859884 -0.859849 -0.859594 -0.859148 -0.85852 -0.857607 -0.855955 
124 -0.859501 -0.859633 -0.859771 -0.859884 -0.859849 -0.859594 -0.859148 -0.85852 -0.857607 -0.855955 
125 -0.859501 -0.859633 -0.859771 -0.859884 -0.859849 -0.859594 -0.859148 -0.85852 -0.857607 -0.855955 
126 -0.859501 -0.859633 -0.859771 -0.859884 -0.859849 -0.859594 -0.859148 -0.85852 -0.857607 -0.855955 
127 -0.859501 -0.859633 -0.859771 -0.859884 -0.859849 -0.859594 -0.859148 -0.85852 -0.857607 -0.855955 
128 -0.859501 -0.859633 -0.859771 -0.859884 -0.859849 -0.859594 -0.859148 -0.85852 -0.857607 -0.855955 
129 -0.859501 -0.859633 -0.859771 -0.859884 -0.859849 -0.859594 -0.859148 -0.85852 -0.857607 -0.855955 
130 -0.859501 -0.859633 -0.859771 -0.859884 -0.859849 -0.859594 -0.859148 -0.85852 -0.857607 -0.855955 
131 -0.859501 -0.859633 -0.859771 -0.859884 -0.859849 -0.859594 -0.859148 -0.85852 -0.857607 -0.855955 
132 -0.859501 -0.859633 -0.859771 -0.859884 -0.859849 -0.859594 -0.859148 -0.85852 -0.857607 -0.855955 
133 -0.859501 -0.859633 -0.859771 -0.859884 -0.859849 -0.859594 -0.859148 -0.85852 -0.857607 -0.855955 
134 -0.859501 -0.859633 -0.859771 -0.859884 -0.859849 -0.859594 -0.859148 -0.85852 -0.857607 -0.855955 
135 -0.859501 -0.859633 -0.859771 -0.859884 -0.859849 -0.859594 -0.859148 -0.85852 -0.857607 -0.855955 
136 -0.859501 -0.859633 -0.859771 -0.859884 -0.859849 -0.859594 -0.859148 -0.85852 -0.857607 -0.855955 
137 -0.859501 -0.859633 -0.859771 -0.859884 -0.859849 -0.859594 -0.859148 -0.85852 -0.857607 -0.855955 
138 -0.859501 -0.859633 -0.859771 -0.859884 -0.859849 -0.859594 -0.859148 -0.85852 -0.857607 -0.855955 
139 -0.859501 -0.859633 -0.859771 -0.859884 -0.859849 -0.859594 -0.859148 -0.85852 -0.857607 -0.855955 
140 -0.859501 -0.859633 -0.859771 -0.859884 -0.859849 -0.859594 -0.859148 -0.85852 -0.857607 -0.855955 
141 -0.859501 -0.859633 -0.859771 -0.859884 -0.859849 -0.859594 -0.859148 -0.85852 -0.857607 -0.855955 
142 -0.859501 -0.859633 -0.859771 -0.859884 -0.859849 -0.859594 -0.859148 -0.85852 -0.857607 -0.855955 
143 -0.859501 -0.859633 -0.859771 -0.859884 -0.859849 -0.859594 -0.859148 -0.85852 -0.857607 -0.855955 
144 -0.8595 -0.859633 -0.85977 -0.859884 -0.859849 -0.859594 -0.859148 -0.85852 -0.857607 -0.855955 
145 -0.859501 -0.859633 -0.859771 -0.859884 -0.859849 -0.859594 -0.859148 -0.85852 -0.857607 -0.855955 
146 -0.859501 -0.859633 -0.859771 -0.859884 -0.859849 -0.859594 -0.859148 -0.85852 -0.857607 -0.855955 
147 -0.859501 -0.859633 -0.859771 -0.859884 -0.859849 -0.859594 -0.859148 -0.85852 -0.857607 -0.855955 
148 -0.859501 -0.859633 -0.859771 -0.859884 -0.859849 -0.859594 -0.859148 -0.85852 -0.857607 -0.855955 
149 -0.859501 -0.859633 -0.859771 -0.859884 -0.859849 -0.859594 -0.859148 -0.85852 -0.857607 -0.855955 
150 -0.859501 -0.859633 -0.859771 -0.859884 -0.859849 -0.859594 -0.859148 -0.85852 -0.857607 -0.855955 
151 -0.859502 -0.859634 -0.859771 -0.859884 -0.859849 -0.859594 -0.859148 -0.85852 -0.857607 -0.855955 
152 -0.859501 -0.859633 -0.859771 -0.859884 -0.859849 -0.859594 -0.859148 -0.85852 -0.857607 -0.855955 
153 -0.859501 -0.859634 -0.859771 -0.859885 -0.859849 -0.859594 -0.859148 -0.85852 -0.857607 -0.855955 
154 -0.859503 -0.859634 -0.859771 -0.859884 -0.859849 -0.859594 -0.859148 -0.85852 -0.857607 -0.855955 
155 -0.859501 -0.859633 -0.859771 -0.859884 -0.859849 -0.859594 -0.859148 -0.85852 -0.857607 -0.855955 
156 -0.859499 -0.859632 -0.85977 -0.859884 -0.859849 -0.859594 -0.859148 -0.85852 -0.857607 -0.855955 
157 -0.859501 -0.859633 -0.859771 -0.859885 -0.859849 -0.859594 -0.859148 -0.85852 -0.857607 -0.855955 
158 -0.859501 -0.859633 -0.859771 -0.859884 -0.859849 -0.859594 -0.859148 -0.85852 -0.857607 -0.855955 
159 -0.859501 -0.859633 -0.859771 -0.859884 -0.859849 -0.859594 -0.859148 -0.85852 -0.857607 -0.855955 
160 -0.859501 -0.859633 -0.859771 -0.859884 -0.859849 -0.859594 -0.859148 -0.85852 -0.857607 -0.855955 
161 -0.859389 -0.859576 -0.859748 -0.859879 -0.85985 -0.859595 -0.859149 -0.85852 -0.857607 -0.855955 
162 -0.859546 -0.859663 -0.859787 -0.859891 -0.859851 -0.859594 -0.859148 -0.85852 -0.857607 -0.855955 
163 -0.85951 -0.859638 -0.859772 -0.859885 -0.859849 -0.859593 -0.859148 -0.85852 -0.857607 -0.855955 
164 -0.859522 -0.859629 -0.859759 -0.859875 -0.859845 -0.859592 -0.859148 -0.85852 -0.857607 -0.855955 
165 -0.859499 -0.859632 -0.85977 -0.859884 -0.859849 -0.859594 -0.859148 -0.85852 -0.857607 -0.855955 
166 -0.859486 -0.859628 -0.85977 -0.859885 -0.85985 -0.859594 -0.859148 -0.85852 -0.857607 -0.855955 
167 -0.859499 -0.859627 -0.859765 -0.859881 -0.859848 -0.859593 -0.859148 -0.85852 -0.857607 -0.855955 
168 -0.859566 -0.859689 -0.859809 -0.859905 -0.859858 -0.859595 -0.859148 -0.85852 -0.857607 -0.855955 
169 -0.859501 -0.859633 -0.859771 -0.859884 -0.859849 -0.859594 -0.859148 -0.85852 -0.857607 -0.855955 
170 -0.859528 -0.859639 -0.859767 -0.85988 -0.859847 -0.859592 -0.859148 -0.85852 -0.857607 -0.855955 
171 -0.859487 -0.859625 -0.859767 -0.859884 -0.859849 -0.859594 -0.859148 -0.85852 -0.857607 -0.855955 
172 -0.859512 -0.85964 -0.859773 -0.859885 -0.859849 -0.859593 -0.859148 -0.85852 -0.857607 -0.855955 
173 -0.859501 -0.859633 -0.859771 -0.859884 -0.859849 -0.859594 -0.859148 -0.85852 -0.857607 -0.855955 
174 -0.8588 -0.859373 -0.859767 -0.859972 -0.859928 -0.859633 -0.85916 -0.858521 -0.857607 -0.855955 
175 -0.859805 -0.85983 -0.859855 -0.859898 -0.859838 -0.859583 -0.859143 -0.858519 -0.857607 -0.855955 
176 -0.861648 -0.860987 -0.860436 -0.86009 -0.859843 -0.859547 -0.859126 -0.858518 -0.857609 -0.855956 
177 -0.859224 -0.859464 -0.859694 -0.859865 -0.859853 -0.859601 -0.859153 -0.858522 -0.857608 -0.855955 
178 -0.859588 -0.859767 -0.859875 -0.85994 -0.859869 -0.859596 -0.859147 -0.858519 -0.857607 -0.855955 
179 -0.859501 -0.859633 -0.859771 -0.859884 -0.859849 -0.859594 -0.859148 -0.85852 -0.857607 -0.855955 
180 -0.859733 -0.860952 -0.861297 -0.861061 -0.860511 -0.859857 -0.859213 -0.858525 -0.857605 -0.855954 
181 -0.859571 -0.859684 -0.8598 -0.859898 -0.859854 -0.859594 -0.859148 -0.85852 -0.857607 -0.855955 
182 -0.860555 -0.860246 -0.860018 -0.859906 -0.859785 -0.859531 -0.859115 -0.858509 -0.857605 -0.855955 
183 -0.860793 -0.860471 -0.860255 -0.860132 -0.859952 -0.859618 -0.859141 -0.858511 -0.857604 -0.855955 
184 -0.859501 -0.859648 -0.859785 -0.859893 -0.859852 -0.859594 -0.859148 -0.85852 -0.857607 -0.855955 
185 -0.859661 -0.85977 -0.859863 -0.859934 -0.85987 -0.859599 -0.859148 -0.858519 -0.857607 -0.855955 
186 -0.854618 -0.856042 -0.857909 -0.85939 -0.859999 -0.859829 -0.859268 -0.85855 -0.857609 -0.855955 
187 -0.858756 -0.85877 -0.859115 -0.859537 -0.859741 -0.859599 -0.859175 -0.858535 -0.857611 -0.855956 
188 -0.872161 -0.865423 -0.860001 -0.85719 -0.856856 -0.857743 -0.858477 -0.858418 -0.857622 -0.855961 
189 -0.85123 -0.853202 -0.856208 -0.858752 -0.859977 -0.859989 -0.859382 -0.858585 -0.857612 -0.855954 
190 -0.859501 -0.859633 -0.859771 -0.859884 -0.859849 -0.859594 -0.859148 -0.85852 -0.857607 -0.855955 
191 -0.859501 -0.859633 -0.859771 -0.859884 -0.859849 -0.859594 -0.859148 -0.85852 -0.857607 -0.855955 
192 -0.837951 -0.848647 -0.85834 -0.864933 -0.866967 -0.864832 -0.861092 -0.858463 -0.857259 -0.855855 
193 -0.859501 -0.859633 -0.859771 -0.859884 -0.859849 -0.859594 -0.859148 -0.85852 -0.857607 -0.855955 
194 -0.859513 -0.859638 -0.859771 -0.859884 -0.859849 -0.859593 -0.859148 -0.85852 -0.857607 -0.855955 
195 -0.838381 -0.832472 -0.831046 -0.835122 -0.842921 -0.850821 -0.855927 -0.857806 -0.857564 -0.855965 
196 -0.859501 -0.859633 -0.859771 -0.859884 -0.859849 -0.859594 -0.859148 -0.85852 -0.857607 -0.855955 
197 -0.859501 -0.859633 -0.859771 -0.859884 -0.859849 -0.859594 -0.859148 -0.85852 -0.857607 -0.855955 
198 -0.859501 -0.859633 -0.859771 -0.859884 -0.859849 -0.859594 -0.859148 -0.85852 -0.857607 -0.855955 
199 -0.863741 -0.866748 -0.866755 -0.864682 -0.861982 -0.859897 -0.858803 -0.858231 -0.857506 -0.85594 
200 -0.831444 -0.844697 -0.857213 -0.864871 -0.865708 -0.861903 -0.858216 -0.857091 -0.857016 -0.855875 
201 -0.91255 -0.904304 -0.889213 -0.872424 -0.860877 -0.856818 -0.85724 -0.858112 -0.857706 -0.856004 
202 -0.859501 -0.859633 -0.859771 -0.859884 -0.859849 -0.859594 -0.859148 -0.85852 -0.857607 -0.855955 
203 -0.859516 -0.859647 -0.85978 -0.859889 -0.859851 -0.859594 -0.859148 -0.85852 -0.857607 -0.855955 
204 -0.859501 -0.859633 -0.859771 -0.859884 -0.859849 -0.859594 -0.859148 -0.85852 -0.857607 -0.855955 
205 -0.854884 -0.854879 -0.855954 -0.857459 -0.858691 -0.859252 -0.859153 -0.858582 -0.857636 -0.85596 
206 -0.859501 -0.859633 -0.859771 -0.859884 -0.859849 -0.859594 -0.859148 -0.85852 -0.857607 -0.855955 
207 -0.800734 -0.810402 -0.825238 -0.842821 -0.857162 -0.863837 -0.863652 -0.860684 -0.858115 -0.855992 
208 -0.833497 -0.843934 -0.866156 -0.889429 -0.897494 -0.8861 -0.869372 -0.859622 -0.856798 -0.855683 
209 -0.857037 -0.857756 -0.858628 -0.859357 -0.859699 -0.859598 -0.85918 -0.858537 -0.857612 -0.855956 
210 -0.93183 -0.928083 -0.914576 -0.890235 -0.864851 -0.852232 -0.852846 -0.856817 -0.85793 -0.856179 
211 -0.859501 -0.859633 -0.859771 -0.859884 -0.859849 -0.859594 -0.859148 -0.85852 -0.857607 -0.855955 
212 -0.859501 -0.859633 -0.859771 -0.859884 -0.859849 -0.859594 -0.859148 -0.85852 -0.857607 -0.855955 
213 -0.859502 -0.859633 -0.85977 -0.859884 -0.859849 -0.859594 -0.859148 -0.85852 -0.857607 -0.855955 
214 -0.82649 -0.843485 -0.857068 -0.864375 -0.865355 -0.862844 -0.860098 -0.858481 -0.857482 -0.855924 
215 -0.804869 -0.803812 -0.789262 -0.763571 -0.746159 -0.763033 -0.811106 -0.851408 -0.863467 -0.858701 
216 -0.818956 -0.829731 -0.848653 -0.865228 -0.880737 -0.896011 -0.895834 -0.876505 -0.858575 -0.854408 
217 -0.859501 -0.859633 -0.859771 -0.859884 -0.859849 -0.859594 -0.859148 -0.85852 -0.857607 -0.855955 
218 -0.886513 -0.879835 -0.874003 -0.881114 -0.90345 -0.920372 -0.907099 -0.873734 -0.856422 -0.855826 
219 -0.859501 -0.859633 -0.859771 -0.859884 -0.859849 -0.859594 -0.859148 -0.85852 -0.857607 -0.855955 
220 -0.980047 -0.974906 -0.970618 -0.978719 -0.987585 -0.967929 -0.917492 -0.871954 -0.853638 -0.853294 
221 -0.768328 -0.770884 -0.777967 -0.79555 -0.824813 -0.85439 -0.869217 -0.868127 -0.861517 -0.85661 
222 -0.760066 -0.748301 -0.732794 -0.716443 -0.698244 -0.689724 -0.725645 -0.805611 -0.858092 -0.859752 
223 -0.912729 -0.91673 -0.925661 -0.943759 -0.969458 -0.980563 -0.946494 -0.88521 -0.850592 -0.84994 
224 -0.936231 -0.919365 -0.897936 -0.876036 -0.859614 -0.851816 -0.851055 -0.853574 -0.855817 -0.85567 
225 -0.859397 -0.859569 -0.859741 -0.859876 -0.85985 -0.859595 -0.859149 -0.85852 -0.857607 -0.855955 
226 -0.855245 -0.859178 -0.861547 -0.862375 -0.861904 -0.860737 -0.859547 -0.858579 -0.857597 -0.855951 
227 -0.934699 -0.910482 -0.88622 -0.891538 -0.91075 -0.900448 -0.872567 -0.874008 -0.902075 -0.882584 
228 -0.861259 -0.860429 -0.859946 -0.859775 -0.859689 -0.859486 -0.859101 -0.858506 -0.857605 -0.855955 
229 -0.859501 -0.859633 -0.859771 -0.859884 -0.859849 -0.859594 -0.859148 -0.85852 -0.857607 -0.855955 
230 -0.859501 -0.859633 -0.859771 -0.859884 -0.859849 -0.859594 -0.859148 -0.85852 -0.857607 -0.855955 
231 -0.859501 -0.859633 -0.859771 -0.859884 -0.859849 -0.859594 -0.859148 -0.85852 -0.857607 -0.855955 
232 -1.02823 -1.03608 -1.06637 -1.0614 -1.02614 -1.02878 -1.09444 -1.14788 -1.10761 -0.952238 
233 -0.859501 -0.859633 -0.859771 -0.859884 -0.859849 -0.859594 -0.859148 -0.85852 -0.857607 -0.855955 
234 -1.00294 -1.0063 -1.01222 -1.0198 -1.01504 -0.981895 -0.929941 -0.887448 -0.865148 -0.856433 
235 -0.642329 -0.625156 -0.609973 -0.609016 -0.620527 -0.631514 -0.615335 -0.572102 -0.573876 -0.735911 
236 -0.903565 -0.88421 -0.867687 -0.85724 -0.853451 -0.854158 -0.856254 -0.857569 -0.857463 -0.855957 
237 -1.04925 -1.05803 -1.08954 -1.07406 -1.01429 -1.01626 -1.11267 -1.1808 -1.10046 -0.933769 
238 -0.859501 -0.859633 -0.859771 -0.859884 -0.859849 -0.859594 -0.859148 -0.85852 -0.857607 -0.855955 
239 -0.727074 -0.680465 -0.652951 -0.673784 -0.702193 -0.678424 -0.616742 -0.603098 -0.66398 -0.785606 
240 -0.761262 -0.765971 -0.778778 -0.802893 -0.833268 -0.857774 -0.868428 -0.867098 -0.861273 -0.856587 
241 -0.715684 -0.72142 -0.7221 -0.715841 -0.706072 -0.711324 -0.748374 -0.801734 -0.840725 -0.854373 
242 -0.859501 -0.859633 -0.859771 -0.859884 -0.859849 -0.859594 -0.859148 -0.85852 -0.857607 -0.855955 
243 -0.993902 -1.00781 -1.02295 -1.01881 -0.980986 -0.92336 -0.875534 -0.852605 -0.849967 -0.853595 
244 -1.13536 -1.15115 -1.10348 -1.02895 -1.0322 -1.14449 -1.29973 -1.36158 -1.20713 -0.962022 
245 -0.471278 -0.496127 -0.559574 -0.628606 -0.642356 -0.551136 -0.374489 -0.266479 -0.436778 -0.729765 
246 -1.10652 -1.10848 -1.07009 -1.0332 -1.05354 -1.13409 -1.19979 -1.16915 -1.04866 -0.914325 
247 -0.859501 -0.859633 -0.859771 -0.859884 -0.859849 -0.859594 -0.859148 -0.85852 -0.857607 -0.855955 
248 -0.859501 -0.859633 -0.859771 -0.859884 -0.859849 -0.859594 -0.859148 -0.85852 -0.857607 -0.855955 
249 -0.603248 -0.622683 -0.650646 -0.66754 -0.644569 -0.574854 -0.517346 -0.559597 -0.687905 -0.807957 
250 -0.86593 -0.864755 -0.862947 -0.861245 -0.860042 -0.859341 -0.858902 -0.858405 -0.857578 -0.855952 
251 -0.792591 -0.809088 -0.82873 -0.84757 -0.860584 -0.865551 -0.864456 -0.861168 -0.858351 -0.856045 
252 -0.702663 -0.693846 -0.68314 -0.68398 -0.712631 -0.768357 -0.825074 -0.857523 -0.863793 -0.858196 
253 -0.859501 -0.859633 -0.859771 -0.859884 -0.859849 -0.859594 -0.859148 -0.85852 -0.857607 -0.855955 
254 -0.85684 -0.857521 -0.858445 -0.859268 -0.859692 -0.859636 -0.859221 -0.858562 -0.85762 -0.855957 
255 -0.859501 -0.859633 -0.859771 -0.859884 -0.859849 -0.859594 -0.859148 -0.85852 -0.857607 -0.855955 
256 -0.859502 -0.859633 -0.85977 -0.859884 -0.859849 -0.859594 -0.859148 -0.85852 -0.857607 -0.855955 
257 -1.10894 -1.06494 -1.01731 -1.02755 -1.10759 -1.21443 -1.26675 -1.20059 -1.04848 -0.909189 
258 -0.859475 -0.859456 -0.859597 -0.859776 -0.859803 -0.859582 -0.859148 -0.858521 -0.857608 -0.855955 
259 -0.858709 -0.859253 -0.859662 -0.859909 -0.859908 -0.859639 -0.859171 -0.858528 -0.857609 -0.855955 
260 -0.622785 -0.65008 -0.686185 -0.687005 -0.637135 -0.565413 -0.534702 -0.587551 -0.699 -0.808671 
261 -1.004 -1.01244 -1.03246 -1.05281 -1.05162 -1.01551 -0.956524 -0.901803 -0.868666 -0.856581 
262 -1.03715 -1.01994 -1.02167 -1.05508 -1.10713 -1.13923 -1.11482 -1.03801 -0.948498 -0.880735 
263 -0.859501 -0.859633 -0.859771 -0.859884 -0.859849 -0.859594 -0.859148 -0.85852 -0.857607 -0.855955 
264 -0.85948 -0.859628 -0.859771 -0.859886 -0.859851 -0.859594 -0.859148 -0.85852 -0.857607 -0.855955 
265 -0.691994 -0.708542 -0.704674 -0.678959 -0.657654 -0.675001 -0.732504 -0.797256 -0.840583 -0.854864 
266 -0.66382 -0.692934 -0.713458 -0.700165 -0.654975 -0.613861 -0.620436 -0.679823 -0.759904 -0.827423 
267 -0.93678 -0.916413 -0.892984 -0.872708 -0.859703 -0.854228 -0.853883 -0.855508 -0.856587 -0.8558 
268 -0.859502 -0.859635 -0.859772 -0.859885 -0.85985 -0.859594 -0.859148 -0.85852 -0.857607 -0.855955 
269 -0.859501 -0.859633 -0.859771 -0.859884 -0.859849 -0.859594 -0.859148 -0.85852 -0.857607 -0.855955 
270 -0.986231 -0.969027 -0.975888 -1.00635 -1.04952 -1.08731 -1.09988 -1.06955 -0.992305 -0.8987 
271 -0.989946 -1.01329 -1.03545 -1.03734 -1.00891 -0.959799 -0.910997 -0.877286 -0.860825 -0.855639 
272 -0.710037 -0.73288 -0.740157 -0.73001 -0.701515 -0.658353 -0.620025 -0.623977 -0.696225 -0.802969 
273 -0.775343 -0.788853 -0.808436 -0.829734 -0.846952 -0.856934 -0.860336 -0.85988 -0.858157 -0.856043 
274 -0.743465 -0.733238 -0.703667 -0.674225 -0.672389 -0.709846 -0.769777 -0.823092 -0.851709 -0.856876 
275 -0.859501 -0.859633 -0.859771 -0.859884 -0.859849 -0.859594 -0.859148 -0.85852 -0.857607 -0.855955 
276 -0.973524 -0.976796 -0.996797 -1.02487 -1.04573 -1.0455 -1.01915 -0.972074 -0.917302 -0.87249 
277 -0.859501 -0.859633 -0.859771 -0.859884 -0.859849 -0.859594 -0.859148 -0.85852 -0.857607 -0.855955 
278 -0.7398 -0.751145 -0.744233 -0.719838 -0.687599 -0.665277 -0.672762 -0.717148 -0.781922 -0.835153 
279 -0.738038 -0.717192 -0.706965 -0.721633 -0.760097 -0.805365 -0.839667 -0.856377 -0.859429 -0.856676 
280 -1.0028 -1.00901 -0.99403 -0.958471 -0.915095 -0.879139 -0.858343 -0.851672 -0.852993 -0.854784 
281 -0.86651 -0.868045 -0.866938 -0.864546 -0.862098 -0.860284 -0.859183 -0.858435 -0.857566 -0.855948 
282 -0.925182 -0.923778 -0.934937 -0.959525 -0.991136 -1.01502 -1.01446 -0.982614 -0.9296 -0.877484 
283 -0.876968 -0.867013 -0.8605 -0.857521 -0.857026 -0.857603 -0.858178 -0.858209 -0.857554 -0.855953 
284 -0.834871 -0.849573 -0.859755 -0.864489 -0.864769 -0.862737 -0.860432 -0.858786 -0.857594 -0.855941 
285 -0.756346 -0.770724 -0.783739 -0.783265 -0.763045 -0.731436 -0.710005 -0.720794 -0.767879 -0.827144 
286 -0.859501 -0.859633 -0.859771 -0.859884 -0.859849 -0.859594 -0.859148 -0.85852 -0.857607 -0.855955 
287 -0.754272 -0.746252 -0.74753 -0.759358 -0.779279 -0.803167 -0.826159 -0.843784 -0.853579 -0.85562 
288 -0.929102 -0.942669 -0.960039 -0.974134 -0.977716 -0.966566 -0.941891 -0.910422 -0.881421 -0.861784 