VARIABLES = "Cell" "Mode 0" "Mode 1" "Mode 2" "Mode 3" "Mode 4" "Mode 5" "Mode 6" "Mode 7" "Mode 8" "Mode 9" 
ZONE T = Iteration79
0 -0.852512 -0.852577 -0.852636 -0.852691 -0.852742 -0.852789 -0.852834 -0.852877 -0.85292 -0.852964 
1 -0.852512 -0.852577 -0.852636 -0.852691 -0.852742 -0.852789 -0.852834 -0.852877 -0.85292 -0.852964 
2 -0.852512 -0.852577 -0.852636 -0.852691 -0.852742 -0.852789 -0.852834 -0.852877 -0.85292 -0.852964 
3 -0.852512 -0.852577 -0.852636 -0.852691 -0.852742 -0.852789 -0.852834 -0.852877 -0.85292 -0.852964 
4 -0.852512 -0.852577 -0.852636 -0.852691 -0.852742 -0.852789 -0.852834 -0.852877 -0.85292 -0.852964 
5 -0.852512 -0.852577 -0.852636 -0.852691 -0.852742 -0.852789 -0.852834 -0.852877 -0.85292 -0.852964 
6 -0.852512 -0.852577 -0.852636 -0.852691 -0.852742 -0.852789 -0.852834 -0.852877 -0.85292 -0.852964 
7 -0.852512 -0.852577 -0.852636 -0.852691 -0.852742 -0.852789 -0.852834 -0.852877 -0.85292 -0.852964 
8 -0.852512 -0.852577 -0.852636 -0.852691 -0.852742 -0.852789 -0.852834 -0.852877 -0.85292 -0.852964 
9 -0.852512 -0.852577 -0.852636 -0.852691 -0.852742 -0.852789 -0.852834 -0.852877 -0.85292 -0.852964 
10 -0.852512 -0.852577 -0.852636 -0.852691 -0.852742 -0.852789 -0.852834 -0.852877 -0.85292 -0.852964 
11 -0.852512 -0.852577 -0.852636 -0.852691 -0.852742 -0.852789 -0.852834 -0.852877 -0.85292 -0.852964 
12 -0.852512 -0.852577 -0.852636 -0.852691 -0.852742 -0.852789 -0.852834 -0.852877 -0.85292 -0.852964 
13 -0.852512 -0.852577 -0.852636 -0.852691 -0.852742 -0.852789 -0.852834 -0.852877 -0.85292 -0.852964 
14 -0.852512 -0.852577 -0.852636 -0.852691 -0.852742 -0.852789 -0.852834 -0.852877 -0.85292 -0.852964 
15 -0.852512 -0.852577 -0.852636 -0.852691 -0.852742 -0.852789 -0.852834 -0.852877 -0.85292 -0.852964 
16 -0.852512 -0.852577 -0.852636 -0.852691 -0.852742 -0.852789 -0.852834 -0.852877 -0.85292 -0.852964 
17 -0.852512 -0.852577 -0.852636 -0.852691 -0.852742 -0.852789 -0.852834 -0.852877 -0.85292 -0.852964 
18 -0.852512 -0.852577 -0.852636 -0.852691 -0.852742 -0.852789 -0.852834 -0.852877 -0.85292 -0.852964 
19 -0.852512 -0.852577 -0.852636 -0.852691 -0.852742 -0.852789 -0.852834 -0.852877 -0.85292 -0.852964 
20 -0.852512 -0.852577 -0.852636 -0.852691 -0.852742 -0.852789 -0.852834 -0.852877 -0.85292 -0.852964 
21 -0.852512 -0.852577 -0.852636 -0.852691 -0.852742 -0.852789 -0.852834 -0.852877 -0.85292 -0.852964 
22 -0.852512 -0.852577 -0.852636 -0.852691 -0.852742 -0.852789 -0.852834 -0.852877 -0.85292 -0.852964 
23 -0.852512 -0.852577 -0.852636 -0.852691 -0.852742 -0.852789 -0.852834 -0.852877 -0.85292 -0.852964 
24 -0.852512 -0.852577 -0.852636 -0.852691 -0.852742 -0.852789 -0.852834 -0.852877 -0.85292 -0.852964 
25 -0.852512 -0.852577 -0.852636 -0.852691 -0.852742 -0.852789 -0.852834 -0.852877 -0.85292 -0.852964 
26 -0.852512 -0.852577 -0.852636 -0.852691 -0.852742 -0.852789 -0.852834 -0.852877 -0.85292 -0.852964 
27 -0.852512 -0.852577 -0.852636 -0.852691 -0.852742 -0.852789 -0.852834 -0.852877 -0.85292 -0.852964 
28 -0.852512 -0.852577 -0.852636 -0.852691 -0.852742 -0.852789 -0.852834 -0.852877 -0.85292 -0.852964 
29 -0.852512 -0.852577 -0.852636 -0.852691 -0.852742 -0.852789 -0.852834 -0.852877 -0.85292 -0.852964 
30 -0.852512 -0.852577 -0.852636 -0.852691 -0.852742 -0.852789 -0.852834 -0.852877 -0.85292 -0.852964 
31 -0.852512 -0.852577 -0.852636 -0.852691 -0.852742 -0.852789 -0.852834 -0.852877 -0.85292 -0.852964 
32 -0.852512 -0.852577 -0.852636 -0.852691 -0.852742 -0.852789 -0.852834 -0.852877 -0.85292 -0.852964 
33 -0.852512 -0.852577 -0.852636 -0.852691 -0.852742 -0.852789 -0.852834 -0.852877 -0.85292 -0.852964 
34 -0.852512 -0.852577 -0.852636 -0.852691 -0.852742 -0.852789 -0.852834 -0.852877 -0.85292 -0.852964 
35 -0.852512 -0.852577 -0.852636 -0.852691 -0.852742 -0.852789 -0.852834 -0.852877 -0.85292 -0.852964 
36 -0.852512 -0.852577 -0.852636 -0.852691 -0.852742 -0.852789 -0.852834 -0.852877 -0.85292 -0.852964 
37 -0.852512 -0.852577 -0.852636 -0.852691 -0.852742 -0.852789 -0.852834 -0.852877 -0.85292 -0.852964 
38 -0.852512 -0.852577 -0.852636 -0.852691 -0.852742 -0.852789 -0.852834 -0.852877 -0.85292 -0.852964 
39 -0.852512 -0.852577 -0.852636 -0.852691 -0.852742 -0.852789 -0.852834 -0.852877 -0.85292 -0.852964 
40 -0.852512 -0.852577 -0.852636 -0.852691 -0.852742 -0.852789 -0.852834 -0.852877 -0.85292 -0.852964 
41 -0.852512 -0.852577 -0.852636 -0.852691 -0.852742 -0.852789 -0.852834 -0.852877 -0.85292 -0.852964 
42 -0.852512 -0.852577 -0.852636 -0.852691 -0.852742 -0.852789 -0.852834 -0.852877 -0.85292 -0.852964 
43 -0.852512 -0.852577 -0.852636 -0.852691 -0.852742 -0.852789 -0.852834 -0.852877 -0.85292 -0.852964 
44 -0.852512 -0.852577 -0.852636 -0.852691 -0.852742 -0.852789 -0.852834 -0.852877 -0.85292 -0.852964 
45 -0.852512 -0.852577 -0.852636 -0.852691 -0.852742 -0.852789 -0.852834 -0.852877 -0.85292 -0.852964 
46 -0.852512 -0.852577 -0.852636 -0.852691 -0.852742 -0.852789 -0.852834 -0.852877 -0.85292 -0.852964 
47 -0.852512 -0.852577 -0.852636 -0.852691 -0.852742 -0.852789 -0.852834 -0.852877 -0.85292 -0.852964 
48 -0.852512 -0.852577 -0.852636 -0.852691 -0.852742 -0.852789 -0.852834 -0.852877 -0.85292 -0.852964 
49 -0.852512 -0.852577 -0.852636 -0.852691 -0.852742 -0.852789 -0.852834 -0.852877 -0.85292 -0.852964 
50 -0.852512 -0.852577 -0.852636 -0.852691 -0.852742 -0.852789 -0.852834 -0.852877 -0.85292 -0.852964 
51 -0.852512 -0.852577 -0.852636 -0.852691 -0.852742 -0.852789 -0.852834 -0.852877 -0.85292 -0.852964 
52 -0.852512 -0.852577 -0.852636 -0.852691 -0.852742 -0.852789 -0.852834 -0.852877 -0.85292 -0.852964 
53 -0.852512 -0.852577 -0.852636 -0.852691 -0.852742 -0.852789 -0.852834 -0.852877 -0.85292 -0.852964 
54 -0.852512 -0.852577 -0.852636 -0.852691 -0.852742 -0.852789 -0.852834 -0.852877 -0.85292 -0.852964 
55 -0.852512 -0.852577 -0.852636 -0.852691 -0.852742 -0.852789 -0.852834 -0.852877 -0.85292 -0.852964 
56 -0.852512 -0.852577 -0.852636 -0.852691 -0.852742 -0.852789 -0.852834 -0.852877 -0.85292 -0.852964 
57 -0.852512 -0.852577 -0.852636 -0.852691 -0.852742 -0.852789 -0.852834 -0.852877 -0.85292 -0.852964 
58 -0.852512 -0.852577 -0.852636 -0.852691 -0.852742 -0.852789 -0.852834 -0.852877 -0.85292 -0.852964 
59 -0.852512 -0.852577 -0.852636 -0.852691 -0.852742 -0.852789 -0.852834 -0.852877 -0.85292 -0.852964 
60 -0.852512 -0.852577 -0.852636 -0.852691 -0.852742 -0.852789 -0.852834 -0.852877 -0.85292 -0.852964 
61 -0.852512 -0.852577 -0.852636 -0.852691 -0.852742 -0.852789 -0.852834 -0.852877 -0.85292 -0.852964 
62 -0.852512 -0.852577 -0.852636 -0.852691 -0.852742 -0.852789 -0.852834 -0.852877 -0.85292 -0.852964 
63 -0.852512 -0.852577 -0.852636 -0.852691 -0.852742 -0.852789 -0.852834 -0.852877 -0.85292 -0.852964 
64 -0.852512 -0.852577 -0.852636 -0.852691 -0.852742 -0.852789 -0.852834 -0.852877 -0.85292 -0.852964 
65 -0.852512 -0.852577 -0.852636 -0.852691 -0.852742 -0.852789 -0.852834 -0.852877 -0.85292 -0.852964 
66 -0.852512 -0.852577 -0.852636 -0.852691 -0.852742 -0.852789 -0.852834 -0.852877 -0.85292 -0.852964 
67 -0.852512 -0.852577 -0.852636 -0.852691 -0.852742 -0.852789 -0.852834 -0.852877 -0.85292 -0.852964 
68 -0.852512 -0.852577 -0.852636 -0.852691 -0.852742 -0.852789 -0.852834 -0.852877 -0.85292 -0.852964 
69 -0.852512 -0.852577 -0.852636 -0.852691 -0.852742 -0.852789 -0.852834 -0.852877 -0.85292 -0.852964 
70 -0.852512 -0.852577 -0.852636 -0.852691 -0.852742 -0.852789 -0.852834 -0.852877 -0.85292 -0.852964 
71 -0.852512 -0.852577 -0.852636 -0.852691 -0.852742 -0.852789 -0.852834 -0.852877 -0.85292 -0.852964 
72 -0.852512 -0.852577 -0.852636 -0.852691 -0.852742 -0.852789 -0.852834 -0.852877 -0.85292 -0.852964 
73 -0.852512 -0.852577 -0.852636 -0.852691 -0.852742 -0.852789 -0.852834 -0.852877 -0.85292 -0.852964 
74 -0.852512 -0.852577 -0.852636 -0.852691 -0.852742 -0.852789 -0.852834 -0.852877 -0.85292 -0.852964 
75 -0.852512 -0.852577 -0.852636 -0.852691 -0.852742 -0.852789 -0.852834 -0.852877 -0.85292 -0.852964 
76 -0.852512 -0.852577 -0.852636 -0.852691 -0.852742 -0.852789 -0.852834 -0.852877 -0.85292 -0.852964 
77 -0.852512 -0.852577 -0.852636 -0.852691 -0.852742 -0.852789 -0.852834 -0.852877 -0.85292 -0.852964 
78 -0.852512 -0.852577 -0.852636 -0.852691 -0.852742 -0.852789 -0.852834 -0.852877 -0.85292 -0.852964 
79 -0.852512 -0.852577 -0.852636 -0.852691 -0.852742 -0.852789 -0.852834 -0.852877 -0.85292 -0.852964 
80 -0.852512 -0.852577 -0.852636 -0.852691 -0.852742 -0.852789 -0.852834 -0.852877 -0.85292 -0.852964 
81 -0.852512 -0.852577 -0.852636 -0.852691 -0.852742 -0.852789 -0.852834 -0.852877 -0.85292 -0.852964 
82 -0.852512 -0.852577 -0.852636 -0.852691 -0.852742 -0.852789 -0.852834 -0.852877 -0.85292 -0.852964 
83 -0.852512 -0.852577 -0.852636 -0.852691 -0.852742 -0.852789 -0.852834 -0.852877 -0.85292 -0.852964 
84 -0.852512 -0.852577 -0.852636 -0.852691 -0.852742 -0.852789 -0.852834 -0.852877 -0.85292 -0.852964 
85 -0.852512 -0.852577 -0.852636 -0.852691 -0.852742 -0.852789 -0.852834 -0.852877 -0.85292 -0.852964 
86 -0.852512 -0.852577 -0.852636 -0.852691 -0.852742 -0.852789 -0.852834 -0.852877 -0.85292 -0.852964 
87 -0.852512 -0.852577 -0.852636 -0.852691 -0.852742 -0.852789 -0.852834 -0.852877 -0.85292 -0.852964 
88 -0.852512 -0.852577 -0.852636 -0.852691 -0.852742 -0.852789 -0.852834 -0.852877 -0.85292 -0.852964 
89 -0.852512 -0.852577 -0.852636 -0.852691 -0.852742 -0.852789 -0.852834 -0.852877 -0.85292 -0.852964 
90 -0.852512 -0.852577 -0.852636 -0.852691 -0.852742 -0.852789 -0.852834 -0.852877 -0.85292 -0.852964 
91 -0.852512 -0.852577 -0.852636 -0.852691 -0.852742 -0.852789 -0.852834 -0.852877 -0.85292 -0.852964 
92 -0.852512 -0.852577 -0.852636 -0.852691 -0.852742 -0.852789 -0.852834 -0.852877 -0.85292 -0.852964 
93 -0.852512 -0.852577 -0.852636 -0.852691 -0.852742 -0.852789 -0.852834 -0.852877 -0.85292 -0.852964 
94 -0.852512 -0.852577 -0.852636 -0.852691 -0.852742 -0.852789 -0.852834 -0.852877 -0.85292 -0.852964 
95 -0.852512 -0.852577 -0.852636 -0.852691 -0.852742 -0.852789 -0.852834 -0.852877 -0.85292 -0.852964 
96 -0.852512 -0.852577 -0.852636 -0.852691 -0.852742 -0.852789 -0.852834 -0.852877 -0.85292 -0.852964 
97 -0.852512 -0.852577 -0.852636 -0.852691 -0.852742 -0.852789 -0.852834 -0.852877 -0.85292 -0.852965 
98 -0.852512 -0.852577 -0.852636 -0.852691 -0.852742 -0.852789 -0.852834 -0.852877 -0.85292 -0.852964 
99 -0.852512 -0.852577 -0.852636 -0.852691 -0.852742 -0.852789 -0.852834 -0.852877 -0.85292 -0.852964 
100 -0.852512 -0.852577 -0.852636 -0.852691 -0.852742 -0.852789 -0.852834 -0.852877 -0.85292 -0.852965 
101 -0.852512 -0.852577 -0.852636 -0.852691 -0.852742 -0.852789 -0.852834 -0.852877 -0.85292 -0.852965 
102 -0.852512 -0.852577 -0.852636 -0.852691 -0.852742 -0.852789 -0.852834 -0.852877 -0.85292 -0.852964 
103 -0.852512 -0.852577 -0.852636 -0.852691 -0.852742 -0.852789 -0.852834 -0.852877 -0.85292 -0.852964 
104 -0.852512 -0.852576 -0.852636 -0.852691 -0.852742 -0.852789 -0.852834 -0.852877 -0.85292 -0.852964 
105 -0.852512 -0.852577 -0.852636 -0.852691 -0.852742 -0.852789 -0.852834 -0.852877 -0.85292 -0.852965 
106 -0.852512 -0.852577 -0.852636 -0.852691 -0.852742 -0.852789 -0.852834 -0.852877 -0.85292 -0.852965 
107 -0.852512 -0.852577 -0.852636 -0.852691 -0.852742 -0.852789 -0.852834 -0.852877 -0.85292 -0.852964 
108 -0.852512 -0.852577 -0.852636 -0.852691 -0.852742 -0.852789 -0.852834 -0.852877 -0.85292 -0.852964 
109 -0.852512 -0.852577 -0.852636 -0.852691 -0.852742 -0.852789 -0.852834 -0.852877 -0.85292 -0.852965 
110 -0.852515 -0.852579 -0.852639 -0.852693 -0.852744 -0.852791 -0.852835 -0.852878 -0.852921 -0.852965 
111 -0.852512 -0.852577 -0.852636 -0.852691 -0.852742 -0.852789 -0.852834 -0.852877 -0.85292 -0.852964 
112 -0.852512 -0.852577 -0.852636 -0.852691 -0.852742 -0.852789 -0.852834 -0.852877 -0.85292 -0.852965 
113 -0.852512 -0.852577 -0.852636 -0.852691 -0.852742 -0.852789 -0.852834 -0.852877 -0.85292 -0.852964 
114 -0.852513 -0.852578 -0.852637 -0.852692 -0.852743 -0.85279 -0.852834 -0.852878 -0.852921 -0.852965 
115 -0.852509 -0.852574 -0.852634 -0.852689 -0.852741 -0.852788 -0.852833 -0.852877 -0.85292 -0.852965 
116 -0.852512 -0.852576 -0.852636 -0.852691 -0.852742 -0.852789 -0.852833 -0.852877 -0.85292 -0.852964 
117 -0.852517 -0.85258 -0.852639 -0.852693 -0.852743 -0.852789 -0.852833 -0.852876 -0.852919 -0.852963 
118 -0.852509 -0.852574 -0.852634 -0.852689 -0.852741 -0.852788 -0.852833 -0.852877 -0.85292 -0.852964 
119 -0.852512 -0.852577 -0.852637 -0.852693 -0.852744 -0.852792 -0.852837 -0.85288 -0.852923 -0.852968 
120 -0.852539 -0.852601 -0.852658 -0.852711 -0.852759 -0.852805 -0.852847 -0.852888 -0.85293 -0.852972 
121 -0.852455 -0.852522 -0.852585 -0.852643 -0.852698 -0.852749 -0.852797 -0.852844 -0.852891 -0.852939 
122 -0.852524 -0.85259 -0.85265 -0.852706 -0.852757 -0.852805 -0.852849 -0.852892 -0.852935 -0.852979 
123 -0.852493 -0.852558 -0.852618 -0.852674 -0.852726 -0.852775 -0.852821 -0.852865 -0.852909 -0.852955 
124 -0.852515 -0.852579 -0.852639 -0.852694 -0.852745 -0.852792 -0.852836 -0.85288 -0.852923 -0.852967 
125 -0.85218 -0.852269 -0.852355 -0.852436 -0.852512 -0.852585 -0.852654 -0.852721 -0.852788 -0.852854 
126 -0.852512 -0.852577 -0.852636 -0.852691 -0.852742 -0.852789 -0.852834 -0.852877 -0.85292 -0.852964 
127 -0.852768 -0.852813 -0.852854 -0.85289 -0.852923 -0.852953 -0.852981 -0.853008 -0.853036 -0.853065 
128 -0.852493 -0.852559 -0.85262 -0.852677 -0.852729 -0.852778 -0.852825 -0.852869 -0.852914 -0.852959 
129 -0.852663 -0.852721 -0.852773 -0.85282 -0.852862 -0.8529 -0.852935 -0.852969 -0.853003 -0.853038 
130 -0.85229 -0.852381 -0.852465 -0.852544 -0.852618 -0.852687 -0.852752 -0.852815 -0.852876 -0.852936 
131 -0.852431 -0.852497 -0.852558 -0.852616 -0.852669 -0.85272 -0.852768 -0.852816 -0.852863 -0.852912 
132 -0.852521 -0.85258 -0.852635 -0.852687 -0.852735 -0.85278 -0.852823 -0.852866 -0.852908 -0.852953 
133 -0.852563 -0.852639 -0.852707 -0.852769 -0.852824 -0.852873 -0.852917 -0.852958 -0.852997 -0.853036 
134 -0.852237 -0.852291 -0.852343 -0.852392 -0.852439 -0.852484 -0.852529 -0.852574 -0.852621 -0.852671 
135 -0.853075 -0.853107 -0.853134 -0.853155 -0.853172 -0.853185 -0.853195 -0.853205 -0.853214 -0.853226 
136 -0.852512 -0.852577 -0.852636 -0.852691 -0.852742 -0.852789 -0.852834 -0.852877 -0.85292 -0.852964 
137 -0.852512 -0.852577 -0.852636 -0.852691 -0.852742 -0.852789 -0.852834 -0.852877 -0.85292 -0.852965 
138 -0.852249 -0.852099 -0.85196 -0.851832 -0.851718 -0.851619 -0.851535 -0.851469 -0.851422 -0.851395 
139 -0.852198 -0.852483 -0.852753 -0.853006 -0.853242 -0.853461 -0.853663 -0.853848 -0.854018 -0.854173 
140 -0.852516 -0.852581 -0.85264 -0.852695 -0.852746 -0.852794 -0.852838 -0.852881 -0.852924 -0.852968 
141 -0.851417 -0.851531 -0.851645 -0.851757 -0.851867 -0.851976 -0.852084 -0.852191 -0.852298 -0.852405 
142 -0.854052 -0.854042 -0.854023 -0.853996 -0.853962 -0.853922 -0.853878 -0.853832 -0.853785 -0.853741 
143 -0.852021 -0.852114 -0.852204 -0.852291 -0.852373 -0.852453 -0.852529 -0.852605 -0.852679 -0.852754 
144 -0.857571 -0.857731 -0.857864 -0.857967 -0.858043 -0.858089 -0.858109 -0.858102 -0.858071 -0.858017 
145 -0.853491 -0.853509 -0.85352 -0.853524 -0.853522 -0.853515 -0.853504 -0.853491 -0.853477 -0.853465 
146 -0.851834 -0.851797 -0.851769 -0.85175 -0.851741 -0.851741 -0.851753 -0.851776 -0.851812 -0.851863 
147 -0.852481 -0.852563 -0.852639 -0.852708 -0.852771 -0.852828 -0.852882 -0.852932 -0.85298 -0.853028 
148 -0.852518 -0.852547 -0.852575 -0.852601 -0.852627 -0.852652 -0.852679 -0.852707 -0.852738 -0.852774 
149 -0.854764 -0.854525 -0.854285 -0.854046 -0.853809 -0.853577 -0.853354 -0.853141 -0.852942 -0.85276 
150 -0.851028 -0.851113 -0.851203 -0.851297 -0.851395 -0.851497 -0.851603 -0.851714 -0.851829 -0.85195 
151 -0.849868 -0.850083 -0.850302 -0.850523 -0.850748 -0.850976 -0.851207 -0.851442 -0.851681 -0.851925 
152 -0.852494 -0.852561 -0.852623 -0.852681 -0.852734 -0.852783 -0.85283 -0.852875 -0.85292 -0.852965 
153 -0.849447 -0.849329 -0.849207 -0.849081 -0.848953 -0.848825 -0.848698 -0.848576 -0.848461 -0.848355 
154 -0.84651 -0.846941 -0.847382 -0.847832 -0.84829 -0.848754 -0.849224 -0.849698 -0.850176 -0.850656 
155 -0.850074 -0.850524 -0.850964 -0.85139 -0.851803 -0.852202 -0.852586 -0.852955 -0.853309 -0.853647 
156 -0.862685 -0.86292 -0.863132 -0.86332 -0.863479 -0.863607 -0.8637 -0.863758 -0.863777 -0.863755 
157 -0.859408 -0.858934 -0.858452 -0.857965 -0.857475 -0.856986 -0.856501 -0.856024 -0.855559 -0.855108 
158 -0.854178 -0.854434 -0.854664 -0.854868 -0.855047 -0.855201 -0.85533 -0.855437 -0.855522 -0.855587 
159 -0.852513 -0.852578 -0.852637 -0.852692 -0.852743 -0.85279 -0.852834 -0.852878 -0.852921 -0.852965 
160 -0.857176 -0.856816 -0.856455 -0.856094 -0.855736 -0.855384 -0.855041 -0.85471 -0.854395 -0.854098 
161 -0.831594 -0.831805 -0.832027 -0.83226 -0.832504 -0.832758 -0.833021 -0.833295 -0.833577 -0.83387 
162 -0.842925 -0.84276 -0.842599 -0.842444 -0.842298 -0.842165 -0.842049 -0.841952 -0.84188 -0.841835 
163 -0.837585 -0.837934 -0.83829 -0.838653 -0.839026 -0.839411 -0.839811 -0.840229 -0.840666 -0.841127 
164 -0.865271 -0.865403 -0.865513 -0.865601 -0.865664 -0.865702 -0.865716 -0.865706 -0.865671 -0.865613 
165 -0.869265 -0.869255 -0.869219 -0.869154 -0.869058 -0.868929 -0.868767 -0.868568 -0.868333 -0.868061 
166 -0.82841 -0.828536 -0.828675 -0.828827 -0.828994 -0.82918 -0.829388 -0.82962 -0.829881 -0.830174 
167 -0.853106 -0.853085 -0.853074 -0.853076 -0.853093 -0.853127 -0.853183 -0.853262 -0.853367 -0.853501 
168 -0.831486 -0.831466 -0.831463 -0.83148 -0.831517 -0.831578 -0.831663 -0.831776 -0.831919 -0.832095 
169 -0.869801 -0.869036 -0.868224 -0.867369 -0.866476 -0.865549 -0.864595 -0.86362 -0.862631 -0.861636 
170 -0.87087 -0.871094 -0.871308 -0.87151 -0.871699 -0.871875 -0.872037 -0.872188 -0.872327 -0.872456 
171 -0.87923 -0.879777 -0.880297 -0.880785 -0.881235 -0.881641 -0.881998 -0.8823 -0.882543 -0.882721 
172 -0.8333 -0.833241 -0.83318 -0.833119 -0.833061 -0.833009 -0.832967 -0.832941 -0.832934 -0.832952 
173 -0.852512 -0.852577 -0.852636 -0.852691 -0.852742 -0.852789 -0.852834 -0.852877 -0.85292 -0.852964 
174 -0.861512 -0.861591 -0.86168 -0.861781 -0.861899 -0.862035 -0.862192 -0.862374 -0.862582 -0.862819 
175 -0.873933 -0.874149 -0.874374 -0.874611 -0.874862 -0.875128 -0.875412 -0.875716 -0.876044 -0.876396 
176 -0.840161 -0.840227 -0.840279 -0.840314 -0.840331 -0.840332 -0.840315 -0.840282 -0.840235 -0.840175 
177 -0.826281 -0.826187 -0.826121 -0.826084 -0.826077 -0.826101 -0.826157 -0.826244 -0.826362 -0.826511 
178 -0.871066 -0.871209 -0.871366 -0.871539 -0.871733 -0.87195 -0.872195 -0.872469 -0.872777 -0.87312 
179 -0.852512 -0.852577 -0.852636 -0.852691 -0.852742 -0.852789 -0.852834 -0.852877 -0.85292 -0.852964 
180 -0.851532 -0.851718 -0.851887 -0.85204 -0.852177 -0.852299 -0.852407 -0.852502 -0.852584 -0.852655 
181 -0.883772 -0.88438 -0.884964 -0.885516 -0.886033 -0.88651 -0.886943 -0.887329 -0.887666 -0.887952 
182 -0.82383 -0.823741 -0.823641 -0.823529 -0.823406 -0.823271 -0.823123 -0.822965 -0.822796 -0.822616 
183 -0.83827 -0.838412 -0.838514 -0.838574 -0.838595 -0.838575 -0.838518 -0.838424 -0.838299 -0.838144 
184 -0.822566 -0.822259 -0.821963 -0.821679 -0.821409 -0.821156 -0.820921 -0.820707 -0.820517 -0.820354 
185 -0.880645 -0.88111 -0.881573 -0.882033 -0.88249 -0.882941 -0.883388 -0.883832 -0.884274 -0.884716 
186 -0.889973 -0.890067 -0.890164 -0.890267 -0.890382 -0.890511 -0.890659 -0.89083 -0.891028 -0.891254 
187 -0.826346 -0.8262 -0.826084 -0.826 -0.825946 -0.825922 -0.825925 -0.825954 -0.826004 -0.826071 
188 -0.866449 -0.866458 -0.866441 -0.866403 -0.866346 -0.86627 -0.86618 -0.866076 -0.865961 -0.865837 
189 -0.888847 -0.88885 -0.888842 -0.888826 -0.888804 -0.888781 -0.888758 -0.88874 -0.888727 -0.888722 
190 -0.852793 -0.852844 -0.852889 -0.852929 -0.852963 -0.852994 -0.853021 -0.853047 -0.853072 -0.853099 
191 -0.852512 -0.852577 -0.852636 -0.852691 -0.852742 -0.852789 -0.852834 -0.852877 -0.85292 -0.852964 
192 -0.813022 -0.813092 -0.813107 -0.813067 -0.81297 -0.812817 -0.812613 -0.812359 -0.812061 -0.811722 
193 -0.852512 -0.852577 -0.852636 -0.852691 -0.852742 -0.852789 -0.852834 -0.852877 -0.85292 -0.852964 
194 -0.874897 -0.874919 -0.874918 -0.874898 -0.874858 -0.8748 -0.874725 -0.874634 -0.87453 -0.874412 
195 -0.857835 -0.857663 -0.857458 -0.857223 -0.856959 -0.856668 -0.856354 -0.856018 -0.855663 -0.855291 
196 -0.845878 -0.846382 -0.846887 -0.847392 -0.847894 -0.848393 -0.848888 -0.849378 -0.849862 -0.850339 
197 -0.852572 -0.85262 -0.852665 -0.852706 -0.852745 -0.852781 -0.852815 -0.85285 -0.852886 -0.852924 
198 -0.852512 -0.852577 -0.852636 -0.852691 -0.852742 -0.852789 -0.852834 -0.852877 -0.85292 -0.852964 
199 -0.793818 -0.793766 -0.79367 -0.793524 -0.793326 -0.793073 -0.792764 -0.792398 -0.79198 -0.791511 
200 -0.837202 -0.837167 -0.837087 -0.83696 -0.836788 -0.836571 -0.836311 -0.836011 -0.83567 -0.835292 
201 -0.907812 -0.907604 -0.907398 -0.907201 -0.907019 -0.906858 -0.906722 -0.906611 -0.906528 -0.906472 
202 -0.852512 -0.852577 -0.852636 -0.852691 -0.852742 -0.852789 -0.852834 -0.852877 -0.85292 -0.852964 
203 -0.883047 -0.883815 -0.88457 -0.885308 -0.886028 -0.886727 -0.887403 -0.888054 -0.888678 -0.889274 
204 -0.853275 -0.853243 -0.85321 -0.853178 -0.853146 -0.853115 -0.853087 -0.853062 -0.853041 -0.853025 
205 -0.898918 -0.899047 -0.899179 -0.899315 -0.899459 -0.899614 -0.899782 -0.899968 -0.900173 -0.900399 
206 -0.852512 -0.852577 -0.852636 -0.852691 -0.852742 -0.852789 -0.852834 -0.852877 -0.85292 -0.852964 
207 -0.779688 -0.779763 -0.779775 -0.779721 -0.779595 -0.779398 -0.779131 -0.778797 -0.778401 -0.777948 
208 -0.861692 -0.861284 -0.860857 -0.860418 -0.859971 -0.859521 -0.859073 -0.858633 -0.858208 -0.857797 
209 -0.895283 -0.895619 -0.895945 -0.896261 -0.896569 -0.896867 -0.89716 -0.897448 -0.897734 -0.89802 
210 -0.919635 -0.919234 -0.918834 -0.918442 -0.918065 -0.917711 -0.917383 -0.917083 -0.91681 -0.916564 
211 -0.852512 -0.852577 -0.852636 -0.852691 -0.852742 -0.852789 -0.852834 -0.852877 -0.85292 -0.852964 
212 -0.852512 -0.852577 -0.852636 -0.852691 -0.852742 -0.852789 -0.852834 -0.852877 -0.85292 -0.852964 
213 -0.829489 -0.829952 -0.830455 -0.830996 -0.831578 -0.832202 -0.832868 -0.833577 -0.83433 -0.835127 
214 -0.764532 -0.764568 -0.764536 -0.76443 -0.764247 -0.763987 -0.763652 -0.763245 -0.76277 -0.762235 
215 -0.798572 -0.798557 -0.798516 -0.798449 -0.798357 -0.798242 -0.798099 -0.797915 -0.797686 -0.797417 
216 -0.802027 -0.801851 -0.801683 -0.801523 -0.801376 -0.80125 -0.801151 -0.801072 -0.801001 -0.800937 
217 -0.854966 -0.854834 -0.854708 -0.854588 -0.854475 -0.854369 -0.85427 -0.854179 -0.854095 -0.854021 
218 -0.845319 -0.845047 -0.844774 -0.844506 -0.844244 -0.843982 -0.843714 -0.843443 -0.843178 -0.842918 
219 -0.852509 -0.852574 -0.852634 -0.852689 -0.85274 -0.852787 -0.852832 -0.852876 -0.852919 -0.852963 
220 -0.947672 -0.947493 -0.947342 -0.947231 -0.947161 -0.947124 -0.947115 -0.947143 -0.947218 -0.947337 
221 -0.793929 -0.793999 -0.79402 -0.79399 -0.793904 -0.793758 -0.793548 -0.793273 -0.79294 -0.792555 
222 -0.737019 -0.736754 -0.736486 -0.736209 -0.735916 -0.735607 -0.735286 -0.734954 -0.734597 -0.734199 
223 -0.901037 -0.900946 -0.900872 -0.900822 -0.900802 -0.900812 -0.90084 -0.900876 -0.900918 -0.900971 
224 -0.922468 -0.922302 -0.922145 -0.922004 -0.921887 -0.921799 -0.921745 -0.921725 -0.921741 -0.921794 
225 -0.822958 -0.822705 -0.822469 -0.822251 -0.822052 -0.821872 -0.821713 -0.821576 -0.82146 -0.821365 
226 -0.797324 -0.797274 -0.797195 -0.797083 -0.796936 -0.796754 -0.796536 -0.796285 -0.796002 -0.795691 
227 -0.887716 -0.887545 -0.887385 -0.887243 -0.887119 -0.88701 -0.886909 -0.886812 -0.886721 -0.886633 
228 -0.816112 -0.816003 -0.815938 -0.815919 -0.815948 -0.816026 -0.81615 -0.816318 -0.816527 -0.816772 
229 -0.852512 -0.852577 -0.852636 -0.852691 -0.852742 -0.852789 -0.852834 -0.852877 -0.85292 -0.852964 
230 -0.852512 -0.852577 -0.852636 -0.852691 -0.852742 -0.852789 -0.852834 -0.852877 -0.85292 -0.852964 
231 -0.852512 -0.852577 -0.852636 -0.852691 -0.852742 -0.852789 -0.852834 -0.852877 -0.85292 -0.852964 
232 -1.09367 -1.0935 -1.0933 -1.09306 -1.09276 -1.09244 -1.0921 -1.09169 -1.09117 -1.09052 
233 -0.852512 -0.852577 -0.852636 -0.852691 -0.852742 -0.852789 -0.852834 -0.852877 -0.85292 -0.852965 
234 -0.982997 -0.982858 -0.982736 -0.982636 -0.982554 -0.982487 -0.982436 -0.982408 -0.982404 -0.98241 
235 -0.644726 -0.644557 -0.644411 -0.644296 -0.644192 -0.644063 -0.643895 -0.643708 -0.643528 -0.64334 
236 -0.913522 -0.913439 -0.913358 -0.913287 -0.913229 -0.913188 -0.913169 -0.913175 -0.91321 -0.913277 
237 -1.10956 -1.10941 -1.10922 -1.10897 -1.10868 -1.10836 -1.10803 -1.10765 -1.10715 -1.10653 
238 -0.852485 -0.852551 -0.852611 -0.852668 -0.85272 -0.852768 -0.852814 -0.852858 -0.852903 -0.852948 
239 -0.703471 -0.703391 -0.703364 -0.703393 -0.703448 -0.703489 -0.703511 -0.703545 -0.703615 -0.703684 
240 -0.764975 -0.765062 -0.765075 -0.765008 -0.764853 -0.764607 -0.76427 -0.76385 -0.763357 -0.762802 
241 -0.731208 -0.731201 -0.731148 -0.731044 -0.730887 -0.730679 -0.73042 -0.730109 -0.729744 -0.729329 
242 -0.852512 -0.852577 -0.852636 -0.852691 -0.852742 -0.852789 -0.852834 -0.852877 -0.85292 -0.852964 
243 -0.988845 -0.988647 -0.98846 -0.988284 -0.988123 -0.987985 -0.98788 -0.987813 -0.987776 -0.987761 
244 -1.11725 -1.11717 -1.11702 -1.11681 -1.11656 -1.11628 -1.11592 -1.11546 -1.11488 -1.11424 
245 -0.515386 -0.515164 -0.51498 -0.514814 -0.514638 -0.514454 -0.514297 -0.514196 -0.514134 -0.514054 
246 -1.04877 -1.04871 -1.0486 -1.04847 -1.04833 -1.04817 -1.04797 -1.04771 -1.04742 -1.04712 
247 -0.851998 -0.852263 -0.85251 -0.852738 -0.852948 -0.85314 -0.853314 -0.853471 -0.853614 -0.853743 
248 -0.852512 -0.852577 -0.852636 -0.852691 -0.852742 -0.852789 -0.852834 -0.852877 -0.85292 -0.852964 
249 -0.605415 -0.605201 -0.604989 -0.604766 -0.604528 -0.604287 -0.604061 -0.603853 -0.603639 -0.603398 
250 -0.806131 -0.806026 -0.805934 -0.805856 -0.805795 -0.805752 -0.805727 -0.805723 -0.805736 -0.805765 
251 -0.769484 -0.769546 -0.769541 -0.769465 -0.769312 -0.769084 -0.768784 -0.768419 -0.767998 -0.767533 
252 -0.741143 -0.741236 -0.741274 -0.741255 -0.741175 -0.741028 -0.74081 -0.740524 -0.740182 -0.739799 
253 -0.852512 -0.852577 -0.852636 -0.852691 -0.852742 -0.852789 -0.852834 -0.852877 -0.85292 -0.852964 
254 -0.884862 -0.885206 -0.88555 -0.885891 -0.886227 -0.886556 -0.886879 -0.887193 -0.887499 -0.887797 
255 -0.852512 -0.852577 -0.852636 -0.852691 -0.852742 -0.852789 -0.852834 -0.852877 -0.85292 -0.852964 
256 -0.873784 -0.87361 -0.873404 -0.873166 -0.872896 -0.872595 -0.872262 -0.8719 -0.871509 -0.87109 
257 -1.04622 -1.04619 -1.04615 -1.04611 -1.04606 -1.04599 -1.04588 -1.04574 -1.0456 -1.04547 
258 -0.819478 -0.819287 -0.819134 -0.81902 -0.818948 -0.81892 -0.818934 -0.818992 -0.819092 -0.819231 
259 -0.877595 -0.878251 -0.878908 -0.879562 -0.880208 -0.880843 -0.881464 -0.882068 -0.882655 -0.883222 
260 -0.624116 -0.62403 -0.623951 -0.623868 -0.623789 -0.623731 -0.623697 -0.623664 -0.623603 -0.623511 
261 -0.995885 -0.995723 -0.995545 -0.995356 -0.995159 -0.994961 -0.994777 -0.99462 -0.994494 -0.994397 
262 -1.02701 -1.02694 -1.02685 -1.02674 -1.02661 -1.02645 -1.02627 -1.02608 -1.02591 -1.02574 
263 -0.852512 -0.852577 -0.852636 -0.852691 -0.852742 -0.852789 -0.852834 -0.852877 -0.85292 -0.852965 
264 -0.829769 -0.829439 -0.829081 -0.82869 -0.828266 -0.827806 -0.827309 -0.826773 -0.826199 -0.825585 
265 -0.711589 -0.711617 -0.711602 -0.711545 -0.711454 -0.71133 -0.71116 -0.710938 -0.71067 -0.710383 
266 -0.669156 -0.669123 -0.669077 -0.669016 -0.66895 -0.668885 -0.668816 -0.668725 -0.668606 -0.668475 
267 -0.913263 -0.913011 -0.912749 -0.912487 -0.912237 -0.91201 -0.911817 -0.911669 -0.911575 -0.911542 
268 -0.832655 -0.832449 -0.832218 -0.831964 -0.831687 -0.83139 -0.831076 -0.83075 -0.830416 -0.83008 
269 -0.852512 -0.852577 -0.852636 -0.852691 -0.852742 -0.852789 -0.852834 -0.852877 -0.85292 -0.852964 
270 -1.00728 -1.00718 -1.00706 -1.00689 -1.0067 -1.00647 -1.00624 -1.006 -1.00576 -1.00552 
271 -0.96954 -0.969351 -0.969126 -0.968872 -0.968601 -0.968331 -0.968076 -0.967844 -0.967639 -0.967472 
272 -0.689064 -0.689133 -0.689211 -0.689312 -0.689436 -0.689562 -0.68967 -0.689765 -0.689872 -0.690005 
273 -0.770987 -0.771062 -0.771093 -0.771074 -0.771003 -0.770882 -0.770718 -0.770517 -0.770288 -0.770044 
274 -0.734998 -0.735049 -0.735069 -0.735055 -0.735002 -0.734899 -0.734743 -0.734547 -0.734329 -0.7341 
275 -0.852508 -0.852572 -0.852632 -0.852687 -0.852738 -0.852785 -0.85283 -0.852874 -0.852917 -0.852962 
276 -0.979868 -0.979708 -0.979512 -0.979282 -0.979028 -0.978766 -0.978511 -0.97827 -0.978048 -0.97785 
277 -0.852512 -0.852577 -0.852636 -0.852691 -0.852742 -0.852789 -0.852834 -0.852877 -0.85292 -0.852964 
278 -0.71374 -0.713787 -0.713832 -0.713878 -0.713919 -0.713941 -0.713939 -0.713923 -0.713911 -0.713908 
279 -0.76336 -0.763485 -0.763578 -0.763632 -0.763638 -0.763597 -0.763515 -0.763402 -0.763265 -0.763109 
280 -0.940244 -0.939963 -0.939656 -0.939338 -0.939023 -0.938725 -0.938457 -0.93823 -0.938059 -0.937956 
281 -0.807789 -0.807752 -0.80775 -0.807788 -0.807866 -0.807986 -0.808146 -0.808344 -0.808575 -0.808832 
282 -0.942563 -0.942527 -0.942437 -0.942292 -0.942093 -0.941842 -0.941541 -0.9412 -0.940835 -0.940467 
283 -0.897489 -0.89739 -0.897292 -0.897204 -0.897131 -0.897079 -0.897055 -0.897062 -0.897106 -0.897189 
284 -0.789161 -0.789262 -0.789362 -0.789459 -0.789556 -0.789654 -0.789757 -0.789868 -0.789992 -0.790132 
285 -0.743576 -0.743644 -0.743725 -0.743806 -0.743878 -0.743949 -0.744032 -0.744135 -0.74425 -0.744366 
286 -0.852512 -0.852577 -0.852636 -0.852691 -0.852742 -0.852789 -0.852834 -0.852877 -0.85292 -0.852964 
287 -0.778065 -0.77825 -0.778419 -0.778563 -0.778678 -0.778766 -0.778826 -0.778857 -0.77886 -0.778845 
288 -0.929608 -0.929472 -0.929291 -0.92907 -0.928814 -0.928533 -0.928233 -0.927927 -0.927629 -0.927355 