VARIABLES = "Cell" "Mode 0" "Mode 1" "Mode 2" "Mode 3" "Mode 4" "Mode 5" "Mode 6" "Mode 7" "Mode 8" "Mode 9" 
ZONE T = Iteration161
0 -0.84993 -0.84991 -0.849893 -0.849878 -0.849866 -0.849857 -0.849851 -0.849847 -0.849846 -0.849848 
1 -0.84993 -0.84991 -0.849893 -0.849878 -0.849866 -0.849857 -0.849851 -0.849847 -0.849846 -0.849848 
2 -0.84993 -0.84991 -0.849893 -0.849878 -0.849866 -0.849857 -0.849851 -0.849847 -0.849846 -0.849848 
3 -0.84993 -0.84991 -0.849893 -0.849878 -0.849866 -0.849857 -0.849851 -0.849847 -0.849846 -0.849848 
4 -0.84993 -0.84991 -0.849893 -0.849878 -0.849866 -0.849857 -0.849851 -0.849847 -0.849846 -0.849848 
5 -0.84993 -0.84991 -0.849893 -0.849878 -0.849866 -0.849857 -0.849851 -0.849847 -0.849846 -0.849848 
6 -0.84993 -0.84991 -0.849893 -0.849878 -0.849866 -0.849857 -0.849851 -0.849847 -0.849846 -0.849848 
7 -0.84993 -0.84991 -0.849893 -0.849878 -0.849866 -0.849857 -0.849851 -0.849847 -0.849846 -0.849848 
8 -0.84993 -0.84991 -0.849893 -0.849878 -0.849866 -0.849857 -0.849851 -0.849847 -0.849846 -0.849848 
9 -0.84993 -0.84991 -0.849893 -0.849878 -0.849866 -0.849857 -0.849851 -0.849847 -0.849846 -0.849848 
10 -0.84993 -0.84991 -0.849893 -0.849878 -0.849866 -0.849857 -0.849851 -0.849847 -0.849846 -0.849848 
11 -0.84993 -0.84991 -0.849893 -0.849878 -0.849866 -0.849857 -0.849851 -0.849847 -0.849846 -0.849848 
12 -0.84993 -0.84991 -0.849893 -0.849878 -0.849866 -0.849857 -0.849851 -0.849847 -0.849846 -0.849848 
13 -0.84993 -0.84991 -0.849893 -0.849878 -0.849866 -0.849857 -0.849851 -0.849847 -0.849846 -0.849848 
14 -0.84993 -0.84991 -0.849893 -0.849878 -0.849866 -0.849857 -0.849851 -0.849847 -0.849846 -0.849848 
15 -0.84993 -0.84991 -0.849893 -0.849878 -0.849866 -0.849857 -0.849851 -0.849847 -0.849846 -0.849848 
16 -0.84993 -0.84991 -0.849893 -0.849878 -0.849866 -0.849857 -0.849851 -0.849847 -0.849846 -0.849848 
17 -0.84993 -0.84991 -0.849893 -0.849878 -0.849866 -0.849857 -0.849851 -0.849847 -0.849846 -0.849848 
18 -0.84993 -0.84991 -0.849893 -0.849878 -0.849866 -0.849857 -0.849851 -0.849847 -0.849846 -0.849848 
19 -0.84993 -0.84991 -0.849893 -0.849878 -0.849866 -0.849857 -0.849851 -0.849847 -0.849846 -0.849848 
20 -0.84993 -0.84991 -0.849893 -0.849878 -0.849866 -0.849857 -0.849851 -0.849847 -0.849846 -0.849848 
21 -0.84993 -0.84991 -0.849893 -0.849878 -0.849866 -0.849857 -0.849851 -0.849847 -0.849846 -0.849848 
22 -0.84993 -0.84991 -0.849893 -0.849878 -0.849866 -0.849857 -0.849851 -0.849847 -0.849846 -0.849848 
23 -0.84993 -0.84991 -0.849893 -0.849878 -0.849866 -0.849857 -0.849851 -0.849847 -0.849846 -0.849848 
24 -0.84993 -0.84991 -0.849893 -0.849878 -0.849866 -0.849857 -0.849851 -0.849847 -0.849846 -0.849848 
25 -0.84993 -0.84991 -0.849893 -0.849878 -0.849866 -0.849857 -0.849851 -0.849847 -0.849846 -0.849848 
26 -0.84993 -0.84991 -0.849893 -0.849878 -0.849866 -0.849857 -0.849851 -0.849847 -0.849846 -0.849848 
27 -0.84993 -0.84991 -0.849893 -0.849878 -0.849866 -0.849857 -0.849851 -0.849847 -0.849846 -0.849848 
28 -0.84993 -0.84991 -0.849893 -0.849878 -0.849866 -0.849857 -0.849851 -0.849847 -0.849846 -0.849848 
29 -0.84993 -0.84991 -0.849893 -0.849878 -0.849866 -0.849857 -0.849851 -0.849847 -0.849846 -0.849848 
30 -0.84993 -0.84991 -0.849893 -0.849878 -0.849866 -0.849857 -0.849851 -0.849847 -0.849846 -0.849848 
31 -0.84993 -0.84991 -0.849893 -0.849878 -0.849866 -0.849857 -0.849851 -0.849847 -0.849846 -0.849848 
32 -0.84993 -0.84991 -0.849893 -0.849878 -0.849866 -0.849857 -0.849851 -0.849847 -0.849846 -0.849848 
33 -0.84993 -0.84991 -0.849893 -0.849878 -0.849866 -0.849857 -0.849851 -0.849847 -0.849846 -0.849848 
34 -0.84993 -0.84991 -0.849893 -0.849878 -0.849866 -0.849857 -0.849851 -0.849847 -0.849846 -0.849848 
35 -0.84993 -0.84991 -0.849893 -0.849878 -0.849866 -0.849857 -0.849851 -0.849847 -0.849846 -0.849848 
36 -0.84993 -0.84991 -0.849893 -0.849878 -0.849866 -0.849857 -0.849851 -0.849847 -0.849846 -0.849848 
37 -0.84993 -0.84991 -0.849893 -0.849878 -0.849866 -0.849857 -0.849851 -0.849847 -0.849846 -0.849848 
38 -0.84993 -0.84991 -0.849893 -0.849878 -0.849866 -0.849857 -0.849851 -0.849847 -0.849846 -0.849848 
39 -0.84993 -0.84991 -0.849893 -0.849878 -0.849866 -0.849857 -0.849851 -0.849847 -0.849846 -0.849848 
40 -0.84993 -0.84991 -0.849893 -0.849878 -0.849866 -0.849857 -0.849851 -0.849847 -0.849846 -0.849848 
41 -0.84993 -0.84991 -0.849893 -0.849878 -0.849866 -0.849857 -0.849851 -0.849847 -0.849846 -0.849848 
42 -0.84993 -0.84991 -0.849893 -0.849878 -0.849866 -0.849857 -0.849851 -0.849847 -0.849846 -0.849848 
43 -0.84993 -0.84991 -0.849893 -0.849878 -0.849866 -0.849857 -0.849851 -0.849847 -0.849846 -0.849848 
44 -0.84993 -0.84991 -0.849893 -0.849878 -0.849866 -0.849857 -0.849851 -0.849847 -0.849846 -0.849848 
45 -0.84993 -0.84991 -0.849893 -0.849878 -0.849866 -0.849857 -0.849851 -0.849847 -0.849846 -0.849848 
46 -0.84993 -0.84991 -0.849893 -0.849878 -0.849866 -0.849857 -0.849851 -0.849847 -0.849846 -0.849848 
47 -0.84993 -0.84991 -0.849893 -0.849878 -0.849866 -0.849857 -0.849851 -0.849847 -0.849846 -0.849848 
48 -0.84993 -0.84991 -0.849893 -0.849878 -0.849866 -0.849857 -0.849851 -0.849847 -0.849846 -0.849848 
49 -0.84993 -0.84991 -0.849893 -0.849878 -0.849866 -0.849857 -0.849851 -0.849847 -0.849846 -0.849848 
50 -0.84993 -0.84991 -0.849893 -0.849878 -0.849866 -0.849857 -0.849851 -0.849847 -0.849846 -0.849848 
51 -0.84993 -0.84991 -0.849893 -0.849878 -0.849866 -0.849857 -0.849851 -0.849847 -0.849846 -0.849848 
52 -0.84993 -0.84991 -0.849893 -0.849878 -0.849866 -0.849857 -0.849851 -0.849847 -0.849846 -0.849848 
53 -0.84993 -0.84991 -0.849893 -0.849878 -0.849866 -0.849857 -0.849851 -0.849847 -0.849846 -0.849848 
54 -0.84993 -0.84991 -0.849893 -0.849878 -0.849866 -0.849857 -0.849851 -0.849847 -0.849846 -0.849848 
55 -0.84993 -0.84991 -0.849893 -0.849878 -0.849866 -0.849857 -0.849851 -0.849847 -0.849846 -0.849848 
56 -0.84993 -0.84991 -0.849893 -0.849878 -0.849866 -0.849857 -0.849851 -0.849847 -0.849846 -0.849848 
57 -0.84993 -0.84991 -0.849893 -0.849878 -0.849866 -0.849857 -0.849851 -0.849847 -0.849846 -0.849848 
58 -0.84993 -0.84991 -0.849893 -0.849878 -0.849866 -0.849857 -0.849851 -0.849847 -0.849846 -0.849848 
59 -0.84993 -0.84991 -0.849893 -0.849878 -0.849866 -0.849857 -0.849851 -0.849847 -0.849846 -0.849848 
60 -0.84993 -0.84991 -0.849893 -0.849878 -0.849866 -0.849857 -0.849851 -0.849847 -0.849846 -0.849848 
61 -0.84993 -0.84991 -0.849893 -0.849878 -0.849866 -0.849857 -0.849851 -0.849847 -0.849846 -0.849848 
62 -0.84993 -0.84991 -0.849893 -0.849878 -0.849866 -0.849857 -0.849851 -0.849847 -0.849846 -0.849848 
63 -0.84993 -0.84991 -0.849893 -0.849878 -0.849866 -0.849857 -0.849851 -0.849847 -0.849846 -0.849848 
64 -0.84993 -0.84991 -0.849893 -0.849878 -0.849866 -0.849857 -0.849851 -0.849847 -0.849846 -0.849848 
65 -0.84993 -0.84991 -0.849893 -0.849878 -0.849866 -0.849857 -0.849851 -0.849847 -0.849846 -0.849848 
66 -0.84993 -0.84991 -0.849893 -0.849878 -0.849866 -0.849857 -0.849851 -0.849847 -0.849846 -0.849848 
67 -0.84993 -0.84991 -0.849893 -0.849878 -0.849866 -0.849857 -0.849851 -0.849847 -0.849846 -0.849848 
68 -0.84993 -0.84991 -0.849893 -0.849878 -0.849866 -0.849857 -0.849851 -0.849847 -0.849846 -0.849848 
69 -0.84993 -0.84991 -0.849893 -0.849878 -0.849866 -0.849857 -0.849851 -0.849847 -0.849846 -0.849848 
70 -0.84993 -0.84991 -0.849893 -0.849878 -0.849866 -0.849857 -0.849851 -0.849847 -0.849846 -0.849848 
71 -0.84993 -0.84991 -0.849893 -0.849878 -0.849866 -0.849857 -0.849851 -0.849847 -0.849846 -0.849848 
72 -0.84993 -0.84991 -0.849893 -0.849878 -0.849866 -0.849857 -0.849851 -0.849847 -0.849846 -0.849848 
73 -0.84993 -0.84991 -0.849893 -0.849878 -0.849866 -0.849857 -0.849851 -0.849847 -0.849846 -0.849848 
74 -0.84993 -0.84991 -0.849893 -0.849878 -0.849866 -0.849857 -0.849851 -0.849847 -0.849846 -0.849848 
75 -0.84993 -0.84991 -0.849893 -0.849878 -0.849866 -0.849857 -0.849851 -0.849847 -0.849846 -0.849848 
76 -0.84993 -0.84991 -0.849893 -0.849878 -0.849866 -0.849857 -0.849851 -0.849847 -0.849846 -0.849848 
77 -0.84993 -0.84991 -0.849893 -0.849878 -0.849866 -0.849857 -0.849851 -0.849847 -0.849846 -0.849848 
78 -0.84993 -0.84991 -0.849893 -0.849878 -0.849866 -0.849857 -0.849851 -0.849847 -0.849846 -0.849848 
79 -0.84993 -0.84991 -0.849893 -0.849878 -0.849866 -0.849857 -0.849851 -0.849847 -0.849846 -0.849848 
80 -0.84993 -0.84991 -0.849893 -0.849878 -0.849866 -0.849857 -0.849851 -0.849847 -0.849846 -0.849848 
81 -0.84993 -0.84991 -0.849893 -0.849878 -0.849866 -0.849857 -0.849851 -0.849847 -0.849846 -0.849848 
82 -0.84993 -0.84991 -0.849893 -0.849878 -0.849866 -0.849857 -0.849851 -0.849847 -0.849846 -0.849848 
83 -0.84993 -0.84991 -0.849893 -0.849878 -0.849866 -0.849857 -0.849851 -0.849847 -0.849846 -0.849848 
84 -0.84993 -0.84991 -0.849893 -0.849878 -0.849867 -0.849857 -0.849851 -0.849847 -0.849846 -0.849848 
85 -0.84993 -0.84991 -0.849893 -0.849878 -0.849866 -0.849857 -0.849851 -0.849847 -0.849846 -0.849848 
86 -0.84993 -0.84991 -0.849893 -0.849878 -0.849866 -0.849857 -0.849851 -0.849847 -0.849846 -0.849848 
87 -0.84993 -0.84991 -0.849893 -0.849878 -0.849866 -0.849857 -0.849851 -0.849847 -0.849846 -0.849848 
88 -0.84993 -0.84991 -0.849893 -0.849878 -0.849866 -0.849857 -0.849851 -0.849847 -0.849846 -0.849848 
89 -0.84993 -0.84991 -0.849893 -0.849879 -0.849867 -0.849858 -0.849851 -0.849848 -0.849847 -0.849848 
90 -0.84993 -0.84991 -0.849893 -0.849878 -0.849866 -0.849857 -0.849851 -0.849847 -0.849846 -0.849848 
91 -0.849931 -0.849911 -0.849894 -0.849879 -0.849867 -0.849858 -0.849852 -0.849848 -0.849847 -0.849849 
92 -0.84993 -0.849911 -0.849893 -0.849879 -0.849867 -0.849858 -0.849851 -0.849847 -0.849846 -0.849848 
93 -0.849931 -0.849911 -0.849894 -0.849879 -0.849868 -0.849858 -0.849852 -0.849848 -0.849847 -0.849849 
94 -0.84993 -0.84991 -0.849893 -0.849878 -0.849866 -0.849857 -0.849851 -0.849847 -0.849846 -0.849848 
95 -0.849935 -0.849915 -0.849898 -0.849883 -0.849871 -0.849862 -0.849855 -0.849852 -0.84985 -0.849852 
96 -0.849929 -0.84991 -0.849893 -0.849878 -0.849866 -0.849857 -0.84985 -0.849847 -0.849846 -0.849847 
97 -0.849931 -0.849911 -0.849894 -0.84988 -0.849868 -0.849858 -0.849852 -0.849848 -0.849847 -0.849849 
98 -0.84993 -0.84991 -0.849893 -0.849878 -0.849866 -0.849857 -0.849851 -0.849847 -0.849846 -0.849848 
99 -0.849911 -0.849892 -0.849876 -0.849863 -0.849852 -0.849843 -0.849838 -0.849835 -0.849835 -0.849838 
100 -0.849944 -0.849925 -0.849907 -0.849892 -0.84988 -0.849871 -0.849864 -0.84986 -0.849858 -0.84986 
101 -0.849927 -0.849908 -0.849891 -0.849876 -0.849864 -0.849855 -0.849849 -0.849845 -0.849844 -0.849846 
102 -0.84992 -0.849901 -0.849885 -0.849871 -0.849859 -0.849851 -0.849845 -0.849842 -0.849841 -0.849843 
103 -0.84993 -0.84991 -0.849893 -0.849879 -0.849867 -0.849858 -0.849851 -0.849847 -0.849846 -0.849848 
104 -0.849925 -0.849907 -0.849891 -0.849877 -0.849867 -0.849858 -0.849853 -0.84985 -0.84985 -0.849852 
105 -0.849945 -0.849924 -0.849905 -0.849889 -0.849876 -0.849866 -0.849858 -0.849853 -0.849851 -0.849852 
106 -0.84993 -0.84991 -0.849893 -0.849879 -0.849867 -0.849858 -0.849851 -0.849848 -0.849847 -0.849848 
107 -0.84993 -0.84991 -0.849893 -0.849878 -0.849866 -0.849857 -0.849851 -0.849847 -0.849846 -0.849848 
108 -0.849924 -0.849905 -0.849888 -0.849874 -0.849862 -0.849853 -0.849847 -0.849844 -0.849843 -0.849845 
109 -0.84992 -0.849901 -0.849884 -0.849869 -0.849858 -0.849849 -0.849842 -0.849839 -0.849838 -0.84984 
110 -0.84989 -0.849865 -0.849842 -0.849822 -0.849805 -0.849792 -0.849781 -0.849774 -0.84977 -0.849769 
111 -0.849833 -0.849817 -0.849805 -0.849794 -0.849787 -0.849782 -0.849779 -0.84978 -0.849783 -0.849789 
112 -0.849931 -0.849911 -0.849894 -0.849879 -0.849867 -0.849858 -0.849852 -0.849848 -0.849847 -0.849849 
113 -0.84993 -0.84991 -0.849893 -0.849878 -0.849866 -0.849857 -0.849851 -0.849847 -0.849846 -0.849848 
114 -0.849929 -0.849907 -0.849888 -0.849871 -0.849857 -0.849846 -0.849838 -0.849833 -0.84983 -0.849831 
115 -0.850068 -0.850049 -0.850032 -0.850017 -0.850004 -0.849993 -0.849985 -0.849979 -0.849976 -0.849974 
116 -0.849906 -0.849888 -0.849872 -0.849859 -0.849848 -0.84984 -0.849835 -0.849832 -0.849833 -0.849836 
117 -0.849575 -0.849559 -0.849546 -0.849537 -0.84953 -0.849527 -0.849528 -0.849531 -0.849538 -0.849548 
118 -0.850281 -0.850245 -0.850211 -0.850181 -0.850153 -0.850127 -0.850105 -0.850086 -0.850069 -0.850056 
119 -0.850123 -0.85009 -0.850059 -0.850031 -0.850006 -0.849983 -0.849963 -0.849947 -0.849933 -0.849923 
120 -0.849799 -0.849745 -0.849695 -0.849649 -0.849608 -0.84957 -0.849537 -0.849508 -0.849483 -0.849463 
121 -0.850026 -0.850053 -0.850081 -0.85011 -0.850139 -0.85017 -0.850202 -0.850235 -0.850268 -0.850303 
122 -0.850597 -0.850546 -0.850496 -0.850449 -0.850405 -0.850363 -0.850324 -0.850288 -0.850255 -0.850226 
123 -0.850123 -0.850101 -0.850081 -0.850063 -0.850049 -0.850037 -0.850028 -0.850022 -0.850019 -0.850018 
124 -0.849634 -0.849615 -0.849599 -0.849586 -0.849577 -0.84957 -0.849566 -0.849566 -0.849568 -0.849574 
125 -0.851574 -0.851586 -0.851598 -0.851611 -0.851624 -0.851637 -0.85165 -0.851664 -0.851678 -0.851691 
126 -0.84993 -0.84991 -0.849893 -0.849878 -0.849866 -0.849857 -0.849851 -0.849847 -0.849846 -0.849848 
127 -0.848664 -0.848652 -0.848643 -0.848639 -0.848639 -0.848642 -0.84865 -0.848663 -0.84868 -0.848701 
128 -0.8495 -0.849478 -0.849459 -0.849443 -0.849431 -0.849423 -0.849418 -0.849416 -0.849417 -0.849422 
129 -0.85046 -0.850352 -0.850247 -0.850148 -0.850053 -0.849962 -0.849877 -0.849796 -0.849721 -0.849651 
130 -0.852785 -0.852735 -0.852686 -0.852637 -0.852589 -0.852542 -0.852495 -0.852449 -0.852404 -0.852359 
131 -0.849917 -0.849953 -0.84999 -0.850028 -0.850066 -0.850106 -0.850146 -0.850187 -0.850228 -0.850271 
132 -0.848428 -0.848509 -0.848592 -0.848677 -0.848763 -0.848852 -0.848941 -0.849033 -0.849125 -0.849218 
133 -0.850563 -0.850468 -0.850374 -0.850281 -0.85019 -0.8501 -0.850011 -0.849925 -0.84984 -0.849758 
134 -0.849378 -0.84939 -0.849404 -0.849419 -0.849437 -0.849458 -0.84948 -0.849505 -0.849533 -0.849563 
135 -0.846587 -0.846587 -0.846592 -0.846601 -0.846615 -0.846634 -0.846658 -0.846688 -0.846722 -0.846762 
136 -0.84993 -0.84991 -0.849893 -0.849878 -0.849867 -0.849857 -0.849851 -0.849847 -0.849846 -0.849848 
137 -0.849916 -0.849896 -0.849879 -0.849864 -0.849852 -0.849842 -0.849836 -0.849832 -0.849831 -0.849833 
138 -0.850487 -0.850545 -0.850611 -0.850685 -0.850767 -0.850857 -0.850955 -0.851062 -0.851177 -0.8513 
139 -0.847428 -0.847357 -0.847282 -0.847205 -0.847126 -0.847044 -0.84696 -0.846874 -0.846786 -0.846695 
140 -0.850233 -0.850201 -0.850171 -0.850144 -0.850119 -0.850097 -0.850078 -0.850061 -0.850047 -0.850036 
141 -0.854395 -0.854341 -0.854292 -0.854245 -0.854203 -0.854164 -0.854128 -0.854096 -0.854066 -0.854039 
142 -0.842064 -0.842089 -0.842119 -0.842157 -0.842201 -0.842253 -0.842312 -0.842379 -0.842453 -0.842535 
143 -0.855319 -0.855264 -0.855209 -0.855154 -0.855098 -0.855042 -0.854985 -0.854929 -0.854872 -0.854814 
144 -0.850117 -0.850102 -0.850083 -0.850063 -0.850039 -0.850013 -0.849985 -0.849954 -0.84992 -0.849884 
145 -0.843481 -0.843526 -0.843577 -0.843634 -0.843698 -0.843767 -0.843843 -0.843925 -0.844013 -0.844107 
146 -0.853983 -0.854076 -0.854172 -0.85427 -0.85437 -0.854472 -0.854575 -0.85468 -0.854787 -0.854895 
147 -0.853816 -0.853645 -0.853476 -0.853309 -0.853145 -0.852984 -0.852826 -0.852671 -0.85252 -0.852372 
148 -0.84685 -0.846996 -0.847145 -0.847295 -0.847448 -0.847602 -0.847758 -0.847916 -0.848075 -0.848235 
149 -0.854303 -0.85429 -0.854282 -0.854279 -0.854281 -0.854287 -0.854299 -0.854315 -0.854337 -0.854364 
150 -0.861912 -0.861883 -0.86185 -0.861813 -0.861772 -0.861727 -0.861678 -0.861624 -0.861567 -0.861504 
151 -0.844671 -0.844667 -0.844664 -0.844663 -0.844664 -0.844668 -0.844673 -0.844681 -0.84469 -0.844703 
152 -0.850715 -0.850695 -0.850676 -0.850659 -0.850642 -0.850627 -0.850614 -0.850601 -0.85059 -0.850581 
153 -0.850071 -0.850205 -0.85034 -0.850477 -0.850614 -0.850753 -0.850892 -0.851031 -0.85117 -0.851308 
154 -0.847193 -0.847239 -0.847285 -0.847328 -0.84737 -0.847409 -0.847446 -0.84748 -0.847511 -0.847538 
155 -0.839696 -0.839512 -0.839331 -0.839151 -0.838975 -0.838801 -0.83863 -0.838464 -0.838301 -0.838143 
156 -0.855578 -0.85558 -0.855585 -0.855594 -0.855607 -0.855624 -0.855645 -0.85567 -0.855699 -0.855732 
157 -0.857139 -0.857171 -0.85721 -0.857254 -0.857305 -0.857363 -0.857428 -0.857501 -0.857581 -0.857669 
158 -0.834912 -0.834767 -0.834631 -0.834504 -0.834386 -0.834277 -0.834178 -0.83409 -0.834012 -0.833944 
159 -0.849963 -0.849939 -0.849917 -0.849898 -0.849882 -0.849869 -0.849858 -0.849851 -0.849847 -0.849845 
160 -0.860945 -0.860958 -0.86097 -0.860981 -0.860992 -0.861004 -0.861015 -0.861027 -0.861039 -0.861052 
161 -0.834916 -0.834886 -0.834857 -0.834829 -0.834802 -0.834775 -0.834748 -0.834722 -0.834695 -0.834669 
162 -0.845562 -0.845675 -0.845791 -0.845909 -0.846029 -0.846151 -0.846274 -0.846399 -0.846524 -0.846649 
163 -0.836214 -0.835989 -0.835764 -0.835538 -0.835313 -0.835087 -0.834863 -0.834639 -0.834417 -0.834197 
164 -0.855731 -0.855764 -0.855801 -0.855842 -0.855887 -0.855937 -0.855991 -0.856049 -0.856111 -0.856177 
165 -0.858701 -0.858702 -0.858711 -0.85873 -0.858757 -0.858794 -0.858841 -0.858898 -0.858964 -0.859041 
166 -0.832554 -0.832438 -0.832322 -0.832205 -0.832088 -0.83197 -0.831852 -0.831733 -0.831615 -0.831496 
167 -0.851305 -0.851374 -0.851447 -0.851524 -0.851605 -0.851691 -0.85178 -0.851874 -0.85197 -0.852071 
168 -0.837274 -0.837327 -0.837382 -0.837441 -0.837502 -0.837564 -0.837629 -0.837695 -0.837762 -0.83783 
169 -0.860107 -0.860143 -0.860184 -0.860233 -0.860288 -0.860351 -0.860421 -0.860499 -0.860585 -0.860678 
170 -0.861036 -0.861049 -0.861064 -0.861082 -0.861103 -0.861126 -0.861153 -0.861183 -0.861216 -0.861252 
171 -0.861304 -0.86131 -0.861322 -0.861341 -0.861366 -0.861398 -0.861436 -0.861482 -0.861535 -0.861594 
172 -0.8378 -0.837703 -0.837608 -0.837515 -0.837426 -0.837338 -0.837253 -0.83717 -0.83709 -0.837013 
173 -0.84993 -0.84991 -0.849893 -0.849878 -0.849866 -0.849857 -0.849851 -0.849847 -0.849846 -0.849848 
174 -0.859821 -0.859943 -0.860066 -0.86019 -0.860313 -0.860435 -0.860556 -0.860676 -0.860793 -0.860908 
175 -0.868938 -0.869041 -0.869144 -0.869247 -0.86935 -0.869452 -0.869553 -0.869653 -0.86975 -0.869846 
176 -0.841464 -0.841469 -0.841474 -0.841479 -0.841484 -0.841489 -0.841493 -0.841497 -0.8415 -0.841501 
177 -0.830237 -0.830166 -0.830101 -0.830043 -0.829993 -0.829951 -0.829917 -0.829891 -0.829873 -0.829864 
178 -0.867684 -0.867824 -0.867964 -0.868101 -0.868236 -0.868368 -0.868496 -0.86862 -0.868739 -0.868853 
179 -0.84993 -0.84991 -0.849893 -0.849878 -0.849866 -0.849857 -0.849851 -0.849847 -0.849846 -0.849848 
180 -0.847716 -0.847823 -0.847925 -0.848021 -0.848112 -0.848195 -0.848271 -0.84834 -0.8484 -0.848451 
181 -0.869812 -0.869843 -0.869877 -0.869915 -0.869955 -0.869999 -0.870046 -0.870097 -0.87015 -0.870207 
182 -0.82401 -0.823934 -0.82386 -0.823788 -0.82372 -0.823655 -0.823593 -0.823535 -0.823482 -0.823433 
183 -0.83424 -0.83425 -0.834255 -0.834256 -0.834251 -0.834241 -0.834225 -0.834204 -0.834178 -0.834146 
184 -0.831364 -0.831334 -0.831313 -0.831299 -0.831293 -0.831295 -0.831304 -0.831321 -0.831344 -0.831374 
185 -0.873651 -0.873723 -0.873793 -0.87386 -0.873924 -0.873985 -0.874042 -0.874096 -0.874146 -0.874191 
186 -0.885327 -0.885488 -0.885644 -0.885794 -0.885939 -0.886077 -0.886207 -0.886328 -0.88644 -0.886541 
187 -0.829836 -0.829758 -0.829687 -0.829625 -0.829572 -0.829528 -0.829495 -0.829472 -0.82946 -0.82946 
188 -0.859483 -0.859572 -0.859652 -0.859722 -0.859781 -0.859829 -0.859865 -0.859888 -0.859897 -0.859893 
189 -0.882704 -0.882836 -0.882959 -0.883072 -0.883174 -0.883264 -0.883342 -0.883406 -0.883456 -0.883491 
190 -0.845938 -0.845973 -0.846012 -0.846056 -0.846103 -0.846155 -0.846212 -0.846272 -0.846337 -0.846406 
191 -0.84993 -0.84991 -0.849893 -0.849878 -0.849866 -0.849857 -0.849851 -0.849847 -0.849846 -0.849848 
192 -0.804962 -0.80492 -0.804872 -0.804819 -0.804759 -0.804693 -0.804621 -0.804543 -0.804459 -0.804369 
193 -0.84993 -0.84991 -0.849893 -0.849878 -0.849866 -0.849857 -0.849851 -0.849847 -0.849846 -0.849848 
194 -0.857933 -0.857865 -0.857807 -0.857757 -0.857717 -0.857688 -0.85767 -0.857663 -0.857668 -0.857686 
195 -0.847501 -0.847528 -0.847548 -0.84756 -0.847564 -0.847558 -0.847542 -0.847516 -0.847479 -0.847431 
196 -0.84194 -0.841783 -0.841628 -0.841475 -0.841323 -0.841173 -0.841025 -0.840879 -0.840736 -0.840595 
197 -0.847571 -0.847647 -0.847726 -0.847808 -0.847891 -0.847977 -0.848066 -0.848157 -0.848249 -0.848344 
198 -0.84993 -0.84991 -0.849893 -0.849878 -0.849866 -0.849857 -0.849851 -0.849847 -0.849846 -0.849848 
199 -0.790353 -0.790178 -0.790001 -0.789822 -0.789643 -0.789465 -0.789288 -0.789114 -0.788944 -0.788779 
200 -0.826302 -0.826299 -0.826291 -0.826276 -0.826255 -0.826226 -0.82619 -0.826146 -0.826094 -0.826033 
201 -0.901402 -0.901498 -0.901584 -0.901657 -0.901718 -0.901765 -0.901798 -0.901816 -0.901819 -0.901805 
202 -0.84993 -0.84991 -0.849893 -0.849878 -0.849866 -0.849857 -0.849851 -0.849847 -0.849846 -0.849848 
203 -0.867176 -0.867095 -0.867018 -0.866946 -0.866879 -0.866818 -0.866764 -0.866716 -0.866675 -0.866643 
204 -0.854781 -0.854879 -0.854978 -0.85508 -0.855183 -0.855287 -0.855393 -0.855501 -0.855609 -0.855717 
205 -0.89281 -0.892946 -0.893079 -0.893207 -0.89333 -0.893447 -0.893557 -0.893658 -0.893751 -0.893833 
206 -0.84993 -0.84991 -0.849893 -0.849878 -0.849866 -0.849857 -0.849851 -0.849847 -0.849846 -0.849848 
207 -0.768768 -0.768667 -0.768563 -0.768457 -0.768347 -0.768235 -0.76812 -0.768003 -0.767885 -0.767765 
208 -0.852304 -0.852316 -0.852319 -0.852311 -0.852294 -0.852265 -0.852225 -0.852174 -0.852111 -0.852037 
209 -0.887424 -0.887531 -0.887638 -0.887744 -0.887847 -0.887947 -0.888044 -0.888135 -0.888221 -0.8883 
210 -0.910491 -0.910512 -0.910523 -0.910524 -0.910514 -0.910492 -0.910458 -0.910413 -0.910355 -0.910285 
211 -0.84993 -0.84991 -0.849893 -0.849878 -0.849866 -0.849857 -0.849851 -0.849847 -0.849846 -0.849848 
212 -0.84993 -0.84991 -0.849893 -0.849878 -0.849866 -0.849857 -0.849851 -0.849847 -0.849846 -0.849848 
213 -0.843503 -0.843398 -0.84329 -0.843179 -0.843066 -0.84295 -0.842832 -0.84271 -0.842585 -0.842456 
214 -0.755592 -0.755437 -0.755279 -0.755119 -0.754957 -0.754795 -0.754633 -0.754472 -0.754313 -0.754157 
215 -0.784012 -0.783996 -0.78398 -0.783964 -0.783947 -0.783928 -0.783908 -0.783884 -0.783858 -0.783827 
216 -0.793673 -0.793727 -0.793779 -0.793828 -0.793873 -0.793912 -0.793946 -0.793973 -0.793992 -0.794004 
217 -0.85945 -0.859547 -0.859647 -0.859748 -0.859852 -0.859957 -0.860064 -0.860174 -0.860285 -0.860398 
218 -0.831926 -0.831945 -0.831964 -0.831981 -0.831994 -0.832004 -0.832009 -0.832008 -0.832002 -0.83199 
219 -0.849928 -0.849907 -0.849889 -0.849873 -0.849861 -0.84985 -0.849843 -0.849838 -0.849837 -0.849838 
220 -0.943542 -0.943552 -0.943557 -0.943555 -0.943547 -0.943532 -0.943509 -0.943477 -0.943437 -0.943388 
221 -0.778447 -0.77839 -0.778335 -0.778282 -0.778229 -0.778178 -0.778127 -0.778076 -0.778025 -0.777975 
222 -0.722455 -0.722444 -0.722433 -0.72242 -0.722404 -0.722386 -0.722364 -0.722338 -0.722308 -0.722272 
223 -0.894726 -0.894765 -0.894803 -0.89484 -0.894874 -0.894906 -0.894933 -0.894955 -0.894973 -0.894984 
224 -0.917448 -0.917533 -0.917611 -0.917682 -0.917745 -0.917799 -0.917843 -0.917877 -0.9179 -0.917911 
225 -0.830807 -0.830762 -0.830723 -0.83069 -0.830665 -0.830649 -0.83064 -0.830641 -0.830652 -0.830672 
226 -0.796786 -0.796649 -0.796508 -0.796365 -0.796219 -0.796072 -0.795926 -0.795781 -0.795639 -0.795501 
227 -0.876956 -0.876977 -0.877003 -0.877034 -0.877069 -0.877106 -0.877146 -0.877186 -0.877226 -0.877266 
228 -0.819556 -0.819471 -0.81939 -0.819312 -0.81924 -0.819174 -0.819115 -0.819065 -0.819024 -0.818993 
229 -0.84993 -0.84991 -0.849893 -0.849878 -0.849866 -0.849857 -0.849851 -0.849847 -0.849846 -0.849848 
230 -0.84993 -0.84991 -0.849893 -0.849878 -0.849866 -0.849857 -0.849851 -0.849847 -0.849846 -0.849848 
231 -0.84993 -0.84991 -0.849893 -0.849878 -0.849866 -0.849857 -0.849851 -0.849847 -0.849846 -0.849848 
232 -1.08235 -1.08239 -1.08242 -1.08245 -1.08247 -1.08249 -1.0825 -1.08249 -1.08248 -1.08246 
233 -0.849929 -0.849909 -0.849892 -0.849878 -0.849866 -0.849857 -0.84985 -0.849846 -0.849845 -0.849847 
234 -0.977364 -0.977358 -0.977347 -0.977333 -0.977314 -0.97729 -0.97726 -0.977225 -0.977184 -0.977137 
235 -0.627904 -0.62791 -0.627932 -0.627969 -0.628021 -0.628085 -0.628161 -0.628247 -0.628342 -0.628445 
236 -0.908811 -0.908905 -0.908994 -0.909078 -0.909156 -0.909227 -0.90929 -0.909345 -0.90939 -0.909424 
237 -1.09767 -1.0977 -1.09773 -1.09775 -1.09778 -1.09779 -1.09781 -1.09782 -1.09782 -1.09782 
238 -0.850104 -0.850079 -0.850058 -0.850038 -0.850022 -0.850007 -0.849996 -0.849988 -0.849982 -0.849979 
239 -0.688673 -0.688718 -0.688784 -0.688869 -0.688971 -0.689089 -0.689221 -0.689366 -0.689522 -0.689687 
240 -0.755693 -0.755549 -0.755403 -0.755256 -0.755108 -0.754961 -0.754815 -0.754672 -0.754532 -0.754397 
241 -0.717159 -0.717062 -0.716968 -0.716876 -0.716789 -0.716705 -0.716625 -0.716549 -0.716477 -0.71641 
242 -0.84993 -0.84991 -0.849893 -0.849878 -0.849866 -0.849857 -0.849851 -0.849847 -0.849846 -0.849848 
243 -0.98456 -0.984537 -0.98451 -0.98448 -0.984447 -0.984409 -0.984367 -0.98432 -0.984269 -0.984213 
244 -1.11159 -1.11167 -1.11175 -1.11183 -1.1119 -1.11197 -1.11203 -1.11208 -1.11212 -1.11216 
245 -0.503043 -0.502974 -0.50292 -0.502883 -0.502863 -0.50286 -0.502875 -0.502905 -0.502953 -0.503016 
246 -1.04476 -1.04483 -1.04489 -1.04496 -1.04502 -1.04508 -1.04513 -1.04517 -1.04521 -1.04524 
247 -0.838828 -0.838617 -0.838413 -0.838217 -0.838029 -0.83785 -0.83768 -0.837519 -0.837367 -0.837225 
248 -0.84993 -0.84991 -0.849893 -0.849878 -0.849866 -0.849857 -0.849851 -0.849847 -0.849846 -0.849848 
249 -0.591836 -0.591763 -0.591701 -0.591649 -0.591608 -0.591578 -0.591558 -0.591548 -0.591548 -0.591558 
250 -0.809737 -0.809608 -0.809477 -0.809344 -0.809212 -0.809081 -0.808953 -0.808829 -0.808711 -0.808599 
251 -0.763496 -0.763352 -0.7632 -0.763043 -0.762882 -0.762719 -0.762555 -0.762392 -0.762233 -0.762079 
252 -0.728956 -0.728855 -0.72876 -0.72867 -0.728587 -0.728509 -0.728439 -0.728375 -0.728318 -0.728267 
253 -0.84993 -0.84991 -0.849893 -0.849878 -0.849866 -0.849857 -0.849851 -0.849847 -0.849846 -0.849848 
254 -0.880605 -0.880611 -0.880615 -0.880617 -0.880617 -0.880614 -0.880608 -0.880597 -0.880583 -0.880563 
255 -0.849926 -0.849907 -0.84989 -0.849875 -0.849864 -0.849855 -0.849848 -0.849845 -0.849844 -0.849846 
256 -0.859326 -0.859371 -0.859422 -0.85948 -0.859546 -0.859619 -0.859699 -0.859787 -0.859883 -0.859985 
257 -1.04366 -1.04374 -1.04382 -1.04391 -1.044 -1.04409 -1.04419 -1.04429 -1.04439 -1.04449 
258 -0.823089 -0.823005 -0.822929 -0.822859 -0.822799 -0.822749 -0.822711 -0.822684 -0.822672 -0.822674 
259 -0.867691 -0.867563 -0.867441 -0.867326 -0.867218 -0.867117 -0.867024 -0.866939 -0.866861 -0.866792 
260 -0.616701 -0.616627 -0.616554 -0.616483 -0.616414 -0.61635 -0.616292 -0.61624 -0.616196 -0.616162 
261 -0.99169 -0.991655 -0.99162 -0.991585 -0.99155 -0.991515 -0.991481 -0.991447 -0.991413 -0.99138 
262 -1.02439 -1.02441 -1.02443 -1.02445 -1.02447 -1.02449 -1.02452 -1.02454 -1.02456 -1.02457 
263 -0.84993 -0.84991 -0.849893 -0.849879 -0.849867 -0.849858 -0.849851 -0.849848 -0.849847 -0.849848 
264 -0.83752 -0.837553 -0.837591 -0.837635 -0.837683 -0.837736 -0.837793 -0.837854 -0.837917 -0.837983 
265 -0.701802 -0.701709 -0.70162 -0.701533 -0.70145 -0.701371 -0.701296 -0.701225 -0.701159 -0.701099 
266 -0.660815 -0.660727 -0.660647 -0.660574 -0.66051 -0.660456 -0.660411 -0.660376 -0.660351 -0.660337 
267 -0.908991 -0.908936 -0.908878 -0.908817 -0.908755 -0.908691 -0.908627 -0.908562 -0.908497 -0.908432 
268 -0.849143 -0.84918 -0.849207 -0.849223 -0.849228 -0.849221 -0.849202 -0.84917 -0.849124 -0.849066 
269 -0.84993 -0.84991 -0.849893 -0.849878 -0.849866 -0.849857 -0.849851 -0.849847 -0.849846 -0.849848 
270 -1.00475 -1.00472 -1.0047 -1.00468 -1.00467 -1.00466 -1.00465 -1.00465 -1.00466 -1.00467 
271 -0.964626 -0.964561 -0.964495 -0.964428 -0.964361 -0.964294 -0.964228 -0.964163 -0.9641 -0.96404 
272 -0.68414 -0.684199 -0.684254 -0.684303 -0.684346 -0.684381 -0.684409 -0.684428 -0.68444 -0.684445 
273 -0.768322 -0.768274 -0.768221 -0.768163 -0.768099 -0.76803 -0.767954 -0.767873 -0.767787 -0.767696 
274 -0.727829 -0.727737 -0.727645 -0.727552 -0.72746 -0.72737 -0.727282 -0.727196 -0.727114 -0.727037 
275 -0.849882 -0.849878 -0.849876 -0.849876 -0.849878 -0.849882 -0.849889 -0.849897 -0.849908 -0.849921 
276 -0.97638 -0.976369 -0.976361 -0.976357 -0.976357 -0.976361 -0.976369 -0.976381 -0.976397 -0.976417 
277 -0.84993 -0.84991 -0.849893 -0.849878 -0.849866 -0.849857 -0.849851 -0.849847 -0.849846 -0.849848 
278 -0.709234 -0.709164 -0.709091 -0.709016 -0.70894 -0.708865 -0.70879 -0.708719 -0.708651 -0.708589 
279 -0.758596 -0.758507 -0.758413 -0.758314 -0.758213 -0.758108 -0.758001 -0.757893 -0.757785 -0.757679 
280 -0.935711 -0.935605 -0.935499 -0.935394 -0.93529 -0.935188 -0.93509 -0.934995 -0.934905 -0.93482 
281 -0.816231 -0.816156 -0.816092 -0.816039 -0.815996 -0.815963 -0.81594 -0.815925 -0.815918 -0.815919 
282 -0.939031 -0.938932 -0.938826 -0.938713 -0.938596 -0.938476 -0.938354 -0.938233 -0.938115 -0.938002 
283 -0.894253 -0.894161 -0.89407 -0.893982 -0.893897 -0.893814 -0.893735 -0.893661 -0.89359 -0.893523 
284 -0.792887 -0.792827 -0.792769 -0.79271 -0.792652 -0.792593 -0.792534 -0.792473 -0.792412 -0.792351 
285 -0.739609 -0.73975 -0.739918 -0.74011 -0.740321 -0.740547 -0.740782 -0.741022 -0.74126 -0.741491 
286 -0.84993 -0.84991 -0.849893 -0.849878 -0.849866 -0.849857 -0.849851 -0.849847 -0.849846 -0.849848 
287 -0.774866 -0.774765 -0.774672 -0.77459 -0.77452 -0.774461 -0.774416 -0.774383 -0.774364 -0.774359 
288 -0.925621 -0.925545 -0.925468 -0.925391 -0.925316 -0.925243 -0.925173 -0.925107 -0.925047 -0.924994 
289 -0.828564 -0.828457 -0.828368 -0.828298 -0.828247 -0.828217 -0.828208 -0.82822 -0.828255 -0.828312 