VARIABLES = "Cell" "Mode 0" "Mode 1" "Mode 2" "Mode 3" "Mode 4" "Mode 5" "Mode 6" "Mode 7" "Mode 8" "Mode 9" 
ZONE T = Iteration436
0 -0.852468 -0.85245 -0.852432 -0.852414 -0.852396 -0.852378 -0.852359 -0.852341 -0.852323 -0.852305 
1 -0.852468 -0.85245 -0.852432 -0.852414 -0.852396 -0.852378 -0.852359 -0.852341 -0.852323 -0.852305 
2 -0.852468 -0.85245 -0.852432 -0.852414 -0.852396 -0.852378 -0.852359 -0.852341 -0.852323 -0.852305 
3 -0.852468 -0.85245 -0.852432 -0.852414 -0.852396 -0.852378 -0.852359 -0.852341 -0.852323 -0.852305 
4 -0.852468 -0.85245 -0.852432 -0.852414 -0.852396 -0.852378 -0.852359 -0.852341 -0.852323 -0.852305 
5 -0.852468 -0.85245 -0.852432 -0.852414 -0.852396 -0.852378 -0.852359 -0.852341 -0.852323 -0.852305 
6 -0.852468 -0.85245 -0.852432 -0.852414 -0.852396 -0.852378 -0.852359 -0.852341 -0.852323 -0.852305 
7 -0.852468 -0.85245 -0.852432 -0.852414 -0.852396 -0.852378 -0.852359 -0.852341 -0.852323 -0.852305 
8 -0.852468 -0.85245 -0.852432 -0.852414 -0.852396 -0.852378 -0.852359 -0.852341 -0.852323 -0.852305 
9 -0.852468 -0.85245 -0.852432 -0.852414 -0.852396 -0.852378 -0.852359 -0.852341 -0.852323 -0.852305 
10 -0.852468 -0.85245 -0.852432 -0.852414 -0.852396 -0.852378 -0.852359 -0.852341 -0.852323 -0.852305 
11 -0.852468 -0.85245 -0.852432 -0.852414 -0.852396 -0.852378 -0.852359 -0.852341 -0.852323 -0.852305 
12 -0.852468 -0.85245 -0.852432 -0.852414 -0.852396 -0.852378 -0.852359 -0.852341 -0.852323 -0.852305 
13 -0.852468 -0.85245 -0.852432 -0.852414 -0.852396 -0.852378 -0.852359 -0.852341 -0.852323 -0.852305 
14 -0.852468 -0.85245 -0.852432 -0.852414 -0.852396 -0.852378 -0.852359 -0.852341 -0.852323 -0.852305 
15 -0.852468 -0.85245 -0.852432 -0.852414 -0.852396 -0.852378 -0.852359 -0.852341 -0.852323 -0.852305 
16 -0.852468 -0.85245 -0.852432 -0.852414 -0.852396 -0.852378 -0.852359 -0.852341 -0.852323 -0.852305 
17 -0.852468 -0.85245 -0.852432 -0.852414 -0.852396 -0.852378 -0.852359 -0.852341 -0.852323 -0.852305 
18 -0.852468 -0.85245 -0.852432 -0.852414 -0.852396 -0.852378 -0.852359 -0.852341 -0.852323 -0.852305 
19 -0.852468 -0.85245 -0.852432 -0.852414 -0.852396 -0.852378 -0.852359 -0.852341 -0.852323 -0.852305 
20 -0.852468 -0.85245 -0.852432 -0.852414 -0.852396 -0.852378 -0.852359 -0.852341 -0.852323 -0.852305 
21 -0.852468 -0.85245 -0.852432 -0.852414 -0.852396 -0.852378 -0.852359 -0.852341 -0.852323 -0.852305 
22 -0.852468 -0.85245 -0.852432 -0.852414 -0.852396 -0.852378 -0.852359 -0.852341 -0.852323 -0.852305 
23 -0.852468 -0.85245 -0.852432 -0.852414 -0.852396 -0.852378 -0.852359 -0.852341 -0.852323 -0.852305 
24 -0.852468 -0.85245 -0.852432 -0.852414 -0.852396 -0.852378 -0.852359 -0.852341 -0.852323 -0.852305 
25 -0.852468 -0.85245 -0.852432 -0.852414 -0.852396 -0.852378 -0.852359 -0.852341 -0.852323 -0.852305 
26 -0.852468 -0.85245 -0.852432 -0.852414 -0.852396 -0.852378 -0.852359 -0.852341 -0.852323 -0.852305 
27 -0.852468 -0.85245 -0.852432 -0.852414 -0.852396 -0.852378 -0.852359 -0.852341 -0.852323 -0.852305 
28 -0.852468 -0.85245 -0.852432 -0.852414 -0.852396 -0.852378 -0.852359 -0.852341 -0.852323 -0.852305 
29 -0.852468 -0.85245 -0.852432 -0.852414 -0.852396 -0.852378 -0.852359 -0.852341 -0.852323 -0.852305 
30 -0.852468 -0.85245 -0.852432 -0.852414 -0.852396 -0.852378 -0.852359 -0.852341 -0.852323 -0.852305 
31 -0.852468 -0.85245 -0.852432 -0.852414 -0.852396 -0.852378 -0.852359 -0.852341 -0.852323 -0.852305 
32 -0.852468 -0.85245 -0.852432 -0.852414 -0.852396 -0.852378 -0.852359 -0.852341 -0.852323 -0.852305 
33 -0.852468 -0.85245 -0.852432 -0.852414 -0.852396 -0.852378 -0.852359 -0.852341 -0.852323 -0.852305 
34 -0.852468 -0.85245 -0.852432 -0.852414 -0.852396 -0.852378 -0.852359 -0.852341 -0.852323 -0.852305 
35 -0.852468 -0.85245 -0.852432 -0.852414 -0.852396 -0.852378 -0.852359 -0.852341 -0.852323 -0.852305 
36 -0.852468 -0.85245 -0.852432 -0.852414 -0.852396 -0.852378 -0.852359 -0.852341 -0.852323 -0.852305 
37 -0.852468 -0.85245 -0.852432 -0.852414 -0.852396 -0.852378 -0.852359 -0.852341 -0.852323 -0.852305 
38 -0.852468 -0.85245 -0.852432 -0.852414 -0.852396 -0.852378 -0.852359 -0.852341 -0.852323 -0.852305 
39 -0.852468 -0.85245 -0.852432 -0.852414 -0.852396 -0.852378 -0.852359 -0.852341 -0.852323 -0.852305 
40 -0.852468 -0.85245 -0.852432 -0.852414 -0.852396 -0.852378 -0.852359 -0.852341 -0.852323 -0.852305 
41 -0.852468 -0.85245 -0.852432 -0.852414 -0.852396 -0.852378 -0.852359 -0.852341 -0.852323 -0.852305 
42 -0.852468 -0.85245 -0.852432 -0.852414 -0.852396 -0.852378 -0.852359 -0.852341 -0.852323 -0.852305 
43 -0.852468 -0.85245 -0.852432 -0.852414 -0.852396 -0.852378 -0.852359 -0.852341 -0.852323 -0.852305 
44 -0.852468 -0.85245 -0.852432 -0.852414 -0.852396 -0.852378 -0.852359 -0.852341 -0.852323 -0.852305 
45 -0.852468 -0.85245 -0.852432 -0.852414 -0.852396 -0.852378 -0.852359 -0.852341 -0.852323 -0.852305 
46 -0.852468 -0.85245 -0.852432 -0.852414 -0.852396 -0.852378 -0.852359 -0.852341 -0.852323 -0.852305 
47 -0.852468 -0.85245 -0.852432 -0.852414 -0.852396 -0.852378 -0.852359 -0.852341 -0.852323 -0.852305 
48 -0.852468 -0.85245 -0.852432 -0.852414 -0.852396 -0.852378 -0.852359 -0.852341 -0.852323 -0.852305 
49 -0.852468 -0.85245 -0.852432 -0.852414 -0.852396 -0.852378 -0.852359 -0.852341 -0.852323 -0.852305 
50 -0.852468 -0.85245 -0.852432 -0.852414 -0.852396 -0.852378 -0.852359 -0.852341 -0.852323 -0.852305 
51 -0.852468 -0.85245 -0.852432 -0.852414 -0.852396 -0.852378 -0.852359 -0.852341 -0.852323 -0.852305 
52 -0.852468 -0.85245 -0.852432 -0.852414 -0.852396 -0.852378 -0.852359 -0.852341 -0.852323 -0.852305 
53 -0.852468 -0.85245 -0.852432 -0.852414 -0.852396 -0.852378 -0.852359 -0.852341 -0.852323 -0.852305 
54 -0.852468 -0.85245 -0.852432 -0.852414 -0.852396 -0.852378 -0.852359 -0.852341 -0.852323 -0.852305 
55 -0.852468 -0.85245 -0.852432 -0.852414 -0.852396 -0.852378 -0.852359 -0.852341 -0.852323 -0.852305 
56 -0.852468 -0.85245 -0.852432 -0.852414 -0.852396 -0.852378 -0.852359 -0.852341 -0.852323 -0.852305 
57 -0.852468 -0.85245 -0.852432 -0.852414 -0.852396 -0.852378 -0.852359 -0.852341 -0.852323 -0.852305 
58 -0.852468 -0.85245 -0.852432 -0.852414 -0.852396 -0.852378 -0.852359 -0.852341 -0.852323 -0.852305 
59 -0.852468 -0.85245 -0.852432 -0.852414 -0.852396 -0.852378 -0.85236 -0.852341 -0.852323 -0.852305 
60 -0.852468 -0.85245 -0.852432 -0.852414 -0.852396 -0.852378 -0.852359 -0.852341 -0.852323 -0.852305 
61 -0.852468 -0.85245 -0.852432 -0.852414 -0.852396 -0.852378 -0.852359 -0.852341 -0.852323 -0.852305 
62 -0.852468 -0.85245 -0.852432 -0.852414 -0.852396 -0.852378 -0.852359 -0.852341 -0.852323 -0.852305 
63 -0.852468 -0.85245 -0.852432 -0.852414 -0.852396 -0.852378 -0.852359 -0.852341 -0.852323 -0.852305 
64 -0.852468 -0.85245 -0.852432 -0.852414 -0.852396 -0.852378 -0.852359 -0.852341 -0.852323 -0.852305 
65 -0.852467 -0.852449 -0.852431 -0.852413 -0.852395 -0.852377 -0.852359 -0.852341 -0.852323 -0.852305 
66 -0.852468 -0.85245 -0.852432 -0.852414 -0.852396 -0.852378 -0.852359 -0.852341 -0.852323 -0.852305 
67 -0.852468 -0.85245 -0.852432 -0.852414 -0.852396 -0.852378 -0.85236 -0.852342 -0.852324 -0.852306 
68 -0.852468 -0.85245 -0.852432 -0.852414 -0.852396 -0.852378 -0.85236 -0.852342 -0.852324 -0.852306 
69 -0.852468 -0.85245 -0.852432 -0.852414 -0.852396 -0.852378 -0.852359 -0.852341 -0.852323 -0.852305 
70 -0.852468 -0.85245 -0.852432 -0.852414 -0.852396 -0.852378 -0.852359 -0.852341 -0.852323 -0.852305 
71 -0.852468 -0.85245 -0.852432 -0.852414 -0.852396 -0.852378 -0.852359 -0.852341 -0.852323 -0.852305 
72 -0.852469 -0.852451 -0.852433 -0.852415 -0.852397 -0.852379 -0.85236 -0.852342 -0.852324 -0.852306 
73 -0.852468 -0.85245 -0.852432 -0.852414 -0.852396 -0.852378 -0.85236 -0.852341 -0.852323 -0.852306 
74 -0.852468 -0.85245 -0.852432 -0.852414 -0.852396 -0.852378 -0.852359 -0.852341 -0.852323 -0.852305 
75 -0.85247 -0.852452 -0.852434 -0.852416 -0.852398 -0.852379 -0.852361 -0.852343 -0.852325 -0.852307 
76 -0.852468 -0.85245 -0.852432 -0.852414 -0.852396 -0.852378 -0.852359 -0.852341 -0.852323 -0.852305 
77 -0.852468 -0.85245 -0.852432 -0.852414 -0.852396 -0.852377 -0.852359 -0.852341 -0.852323 -0.852305 
78 -0.852468 -0.85245 -0.852432 -0.852414 -0.852396 -0.852378 -0.85236 -0.852341 -0.852323 -0.852306 
79 -0.852473 -0.852455 -0.852436 -0.852418 -0.8524 -0.852381 -0.852363 -0.852344 -0.852326 -0.852308 
80 -0.852461 -0.852444 -0.852426 -0.852408 -0.85239 -0.852372 -0.852354 -0.852336 -0.852318 -0.8523 
81 -0.852486 -0.852468 -0.85245 -0.852431 -0.852413 -0.852395 -0.852376 -0.852358 -0.85234 -0.852322 
82 -0.852465 -0.852446 -0.852428 -0.85241 -0.852391 -0.852373 -0.852355 -0.852336 -0.852318 -0.8523 
83 -0.85247 -0.852452 -0.852434 -0.852416 -0.852398 -0.852379 -0.852361 -0.852343 -0.852325 -0.852307 
84 -0.852461 -0.852443 -0.852425 -0.852407 -0.852389 -0.852371 -0.852352 -0.852334 -0.852316 -0.852299 
85 -0.852478 -0.85246 -0.852441 -0.852423 -0.852404 -0.852385 -0.852367 -0.852348 -0.85233 -0.852311 
86 -0.852462 -0.852444 -0.852426 -0.852408 -0.85239 -0.852372 -0.852354 -0.852336 -0.852318 -0.8523 
87 -0.852468 -0.85245 -0.852432 -0.852414 -0.852396 -0.852378 -0.852359 -0.852341 -0.852323 -0.852305 
88 -0.852458 -0.85244 -0.852422 -0.852404 -0.852386 -0.852369 -0.852351 -0.852333 -0.852315 -0.852298 
89 -0.852459 -0.852444 -0.852428 -0.852413 -0.852397 -0.852381 -0.852365 -0.85235 -0.852334 -0.852318 
90 -0.852468 -0.85245 -0.852432 -0.852414 -0.852396 -0.852378 -0.85236 -0.852342 -0.852324 -0.852306 
91 -0.85238 -0.852361 -0.852342 -0.852323 -0.852304 -0.852285 -0.852266 -0.852247 -0.852228 -0.852209 
92 -0.852488 -0.852472 -0.852456 -0.85244 -0.852423 -0.852407 -0.85239 -0.852374 -0.852358 -0.852341 
93 -0.852624 -0.852609 -0.852593 -0.852577 -0.852561 -0.852545 -0.852529 -0.852513 -0.852497 -0.85248 
94 -0.852468 -0.85245 -0.852432 -0.852414 -0.852396 -0.852378 -0.852359 -0.852341 -0.852323 -0.852305 
95 -0.852557 -0.852537 -0.852517 -0.852497 -0.852476 -0.852456 -0.852436 -0.852416 -0.852395 -0.852375 
96 -0.852668 -0.852644 -0.852621 -0.852597 -0.852573 -0.852549 -0.852526 -0.852502 -0.852479 -0.852455 
97 -0.852611 -0.852598 -0.852584 -0.85257 -0.852556 -0.852542 -0.852527 -0.852513 -0.852499 -0.852484 
98 -0.852469 -0.852451 -0.852433 -0.852415 -0.852397 -0.852379 -0.852361 -0.852343 -0.852325 -0.852307 
99 -0.851981 -0.851957 -0.851933 -0.851909 -0.851885 -0.851861 -0.851838 -0.851815 -0.851792 -0.851769 
100 -0.852663 -0.852667 -0.852671 -0.852674 -0.852677 -0.85268 -0.852682 -0.852685 -0.852687 -0.852689 
101 -0.852502 -0.852484 -0.852466 -0.852448 -0.852429 -0.852411 -0.852393 -0.852375 -0.852357 -0.852339 
102 -0.851601 -0.85159 -0.851578 -0.851567 -0.851555 -0.851545 -0.851534 -0.851524 -0.851514 -0.851504 
103 -0.852581 -0.852562 -0.852544 -0.852526 -0.852507 -0.852489 -0.85247 -0.852452 -0.852433 -0.852415 
104 -0.852792 -0.852776 -0.852761 -0.852745 -0.85273 -0.852715 -0.8527 -0.852685 -0.852671 -0.852656 
105 -0.853608 -0.853574 -0.85354 -0.853506 -0.853472 -0.853438 -0.853403 -0.853369 -0.853334 -0.8533 
106 -0.852433 -0.852415 -0.852397 -0.852379 -0.852361 -0.852343 -0.852324 -0.852306 -0.852288 -0.85227 
107 -0.852468 -0.85245 -0.852432 -0.852414 -0.852396 -0.852378 -0.852359 -0.852341 -0.852323 -0.852305 
108 -0.852085 -0.852073 -0.852062 -0.85205 -0.852038 -0.852026 -0.852015 -0.852003 -0.851991 -0.85198 
109 -0.85103 -0.851007 -0.850984 -0.850961 -0.850938 -0.850916 -0.850893 -0.850871 -0.850849 -0.850827 
110 -0.852371 -0.852329 -0.852286 -0.852242 -0.852199 -0.852155 -0.852111 -0.852066 -0.852022 -0.851977 
111 -0.849256 -0.849232 -0.849208 -0.849185 -0.849163 -0.849142 -0.849122 -0.849103 -0.849086 -0.849069 
112 -0.85262 -0.852604 -0.852589 -0.852573 -0.852558 -0.852542 -0.852526 -0.85251 -0.852494 -0.852478 
113 -0.852468 -0.85245 -0.852432 -0.852414 -0.852396 -0.852378 -0.852359 -0.852341 -0.852323 -0.852305 
114 -0.850331 -0.850327 -0.850323 -0.85032 -0.850316 -0.850313 -0.85031 -0.850307 -0.850304 -0.850302 
115 -0.854865 -0.854857 -0.854848 -0.854839 -0.85483 -0.85482 -0.85481 -0.854799 -0.854788 -0.854776 
116 -0.850698 -0.850698 -0.850697 -0.850697 -0.850697 -0.850698 -0.850698 -0.850699 -0.8507 -0.850701 
117 -0.852573 -0.852515 -0.852456 -0.852398 -0.852339 -0.852279 -0.85222 -0.85216 -0.852101 -0.852041 
118 -0.850932 -0.850922 -0.850912 -0.850902 -0.850892 -0.850882 -0.850872 -0.850862 -0.850851 -0.850841 
119 -0.850003 -0.84997 -0.849937 -0.849905 -0.849872 -0.849839 -0.849806 -0.849773 -0.84974 -0.849708 
120 -0.853912 -0.85388 -0.853846 -0.853813 -0.853779 -0.853745 -0.85371 -0.853675 -0.85364 -0.853604 
121 -0.851424 -0.851408 -0.851393 -0.851379 -0.851365 -0.851352 -0.851339 -0.851328 -0.851316 -0.851306 
122 -0.852757 -0.852746 -0.852734 -0.852721 -0.852708 -0.852694 -0.85268 -0.852665 -0.852649 -0.852633 
123 -0.850746 -0.85071 -0.850674 -0.850637 -0.8506 -0.850563 -0.850525 -0.850487 -0.850448 -0.850409 
124 -0.852305 -0.852296 -0.852288 -0.85228 -0.852272 -0.852265 -0.852258 -0.852252 -0.852246 -0.85224 
125 -0.853228 -0.853213 -0.853198 -0.853183 -0.853168 -0.853153 -0.853138 -0.853123 -0.853109 -0.853094 
126 -0.852471 -0.852453 -0.852435 -0.852417 -0.852398 -0.85238 -0.852362 -0.852343 -0.852325 -0.852307 
127 -0.852288 -0.852286 -0.852284 -0.852282 -0.85228 -0.852278 -0.852276 -0.852274 -0.852273 -0.852271 
128 -0.853394 -0.853402 -0.853411 -0.85342 -0.85343 -0.853439 -0.853449 -0.85346 -0.853471 -0.853482 
129 -0.854107 -0.854062 -0.854017 -0.853972 -0.853926 -0.85388 -0.853833 -0.853787 -0.85374 -0.853693 
130 -0.854527 -0.854481 -0.854434 -0.854387 -0.854339 -0.854291 -0.854242 -0.854193 -0.854144 -0.854095 
131 -0.851545 -0.851513 -0.851481 -0.851448 -0.851414 -0.85138 -0.851346 -0.851311 -0.851275 -0.851239 
132 -0.8514 -0.851409 -0.851417 -0.851425 -0.851433 -0.851441 -0.851448 -0.851456 -0.851463 -0.85147 
133 -0.853477 -0.853441 -0.853404 -0.853366 -0.853329 -0.853291 -0.853254 -0.853216 -0.853178 -0.853141 
134 -0.852205 -0.852197 -0.852189 -0.852182 -0.852175 -0.852169 -0.852163 -0.852158 -0.852153 -0.852149 
135 -0.851582 -0.851606 -0.85163 -0.851655 -0.851679 -0.851704 -0.851729 -0.851754 -0.85178 -0.851805 
136 -0.852512 -0.852493 -0.852475 -0.852456 -0.852437 -0.852419 -0.8524 -0.852381 -0.852363 -0.852344 
137 -0.851764 -0.851743 -0.851723 -0.851702 -0.851681 -0.85166 -0.85164 -0.851619 -0.851599 -0.851578 
138 -0.854878 -0.854821 -0.854763 -0.854705 -0.854647 -0.854588 -0.854529 -0.85447 -0.854411 -0.854351 
139 -0.849575 -0.849552 -0.849528 -0.849505 -0.849482 -0.849459 -0.849437 -0.849415 -0.849394 -0.849374 
140 -0.851496 -0.851474 -0.851453 -0.851432 -0.851412 -0.851391 -0.851371 -0.851351 -0.851331 -0.851312 
141 -0.85622 -0.856144 -0.856066 -0.855987 -0.855907 -0.855825 -0.855743 -0.85566 -0.855576 -0.855491 
142 -0.848643 -0.848653 -0.848663 -0.848675 -0.848688 -0.848702 -0.848717 -0.848733 -0.848749 -0.848767 
143 -0.855403 -0.855405 -0.855407 -0.855409 -0.855411 -0.855414 -0.855416 -0.855419 -0.855421 -0.855424 
144 -0.853138 -0.853078 -0.853018 -0.852958 -0.852898 -0.852839 -0.852781 -0.852723 -0.852666 -0.85261 
145 -0.85121 -0.851232 -0.851253 -0.851273 -0.851294 -0.851313 -0.851332 -0.851351 -0.851369 -0.851387 
146 -0.855309 -0.85525 -0.85519 -0.85513 -0.85507 -0.85501 -0.85495 -0.85489 -0.85483 -0.85477 
147 -0.854691 -0.854701 -0.854711 -0.854721 -0.854731 -0.854741 -0.854751 -0.854762 -0.854772 -0.854783 
148 -0.852468 -0.852473 -0.852476 -0.852479 -0.852481 -0.852482 -0.852482 -0.852481 -0.852479 -0.852476 
149 -0.856166 -0.856109 -0.856052 -0.855995 -0.855937 -0.85588 -0.855823 -0.855766 -0.855709 -0.855653 
150 -0.85727 -0.857276 -0.857282 -0.857288 -0.857293 -0.857299 -0.857305 -0.857311 -0.857317 -0.857323 
151 -0.849392 -0.849385 -0.849378 -0.849372 -0.849367 -0.849362 -0.849358 -0.849354 -0.849352 -0.84935 
152 -0.852147 -0.852093 -0.852039 -0.851985 -0.85193 -0.851876 -0.851821 -0.851766 -0.851711 -0.851657 
153 -0.85173 -0.851675 -0.85162 -0.851567 -0.851515 -0.851464 -0.851415 -0.851366 -0.851319 -0.851273 
154 -0.849608 -0.849569 -0.84953 -0.849491 -0.849451 -0.849411 -0.849371 -0.849332 -0.849292 -0.849252 
155 -0.846776 -0.846776 -0.846777 -0.846779 -0.846782 -0.846785 -0.84679 -0.846795 -0.846801 -0.846808 
156 -0.858331 -0.858245 -0.858159 -0.858072 -0.857986 -0.8579 -0.857814 -0.857729 -0.857646 -0.857563 
157 -0.85854 -0.858479 -0.85842 -0.858361 -0.858303 -0.858246 -0.85819 -0.858136 -0.858082 -0.85803 
158 -0.847155 -0.847177 -0.847199 -0.847221 -0.847243 -0.847265 -0.847287 -0.84731 -0.847332 -0.847355 
159 -0.850864 -0.850841 -0.850817 -0.850794 -0.850771 -0.850747 -0.850724 -0.850701 -0.850679 -0.850656 
160 -0.858554 -0.858574 -0.858594 -0.858614 -0.858634 -0.858654 -0.858674 -0.858694 -0.858715 -0.858735 
161 -0.838118 -0.838086 -0.838053 -0.83802 -0.837987 -0.837955 -0.837923 -0.837891 -0.83786 -0.83783 
162 -0.847696 -0.847655 -0.847616 -0.847576 -0.847538 -0.847499 -0.847461 -0.847424 -0.847386 -0.847349 
163 -0.84273 -0.842719 -0.84271 -0.842702 -0.842695 -0.842689 -0.842684 -0.84268 -0.842676 -0.842673 
164 -0.859644 -0.859576 -0.859506 -0.859435 -0.859362 -0.859287 -0.859212 -0.859136 -0.859059 -0.858981 
165 -0.860564 -0.860528 -0.860494 -0.86046 -0.860429 -0.860399 -0.860371 -0.860345 -0.860322 -0.8603 
166 -0.837045 -0.837019 -0.836994 -0.836968 -0.836943 -0.836917 -0.836892 -0.836867 -0.836843 -0.836818 
167 -0.854945 -0.854896 -0.854846 -0.854795 -0.854742 -0.854687 -0.854631 -0.854574 -0.854515 -0.854455 
168 -0.840173 -0.840142 -0.84011 -0.840079 -0.840047 -0.840016 -0.839984 -0.839952 -0.839921 -0.839889 
169 -0.861054 -0.861061 -0.86107 -0.861081 -0.861093 -0.861107 -0.861122 -0.861138 -0.861155 -0.861174 
170 -0.865054 -0.865002 -0.864948 -0.86489 -0.864831 -0.864769 -0.864704 -0.864639 -0.864571 -0.864503 
171 -0.865247 -0.865188 -0.865129 -0.865069 -0.865009 -0.864949 -0.864889 -0.864831 -0.864774 -0.864719 
172 -0.842759 -0.842719 -0.84268 -0.842641 -0.842603 -0.842565 -0.842529 -0.842494 -0.84246 -0.842428 
173 -0.852468 -0.85245 -0.852432 -0.852414 -0.852396 -0.852378 -0.852359 -0.852341 -0.852323 -0.852305 
174 -0.86256 -0.862537 -0.862516 -0.862495 -0.862475 -0.862456 -0.862436 -0.862415 -0.862395 -0.862373 
175 -0.872596 -0.872589 -0.87258 -0.872569 -0.872556 -0.87254 -0.872521 -0.8725 -0.872474 -0.872446 
176 -0.844736 -0.844704 -0.844673 -0.84464 -0.844608 -0.844574 -0.84454 -0.844506 -0.844471 -0.844435 
177 -0.835234 -0.835194 -0.835152 -0.835109 -0.835064 -0.835017 -0.83497 -0.834921 -0.834873 -0.834824 
178 -0.870603 -0.870606 -0.87061 -0.870613 -0.870614 -0.870613 -0.87061 -0.870603 -0.870594 -0.87058 
179 -0.852468 -0.85245 -0.852432 -0.852414 -0.852396 -0.852378 -0.852359 -0.852341 -0.852323 -0.852305 
180 -0.849526 -0.849515 -0.849505 -0.849498 -0.849493 -0.849489 -0.849486 -0.849483 -0.84948 -0.849477 
181 -0.87384 -0.873814 -0.873787 -0.873758 -0.873727 -0.873694 -0.873661 -0.873626 -0.87359 -0.873553 
182 -0.829387 -0.829357 -0.829324 -0.82929 -0.829253 -0.829215 -0.829175 -0.829133 -0.82909 -0.829045 
183 -0.836521 -0.836499 -0.836476 -0.836452 -0.836427 -0.8364 -0.836372 -0.836342 -0.836311 -0.836278 
184 -0.835685 -0.835616 -0.835549 -0.835482 -0.835418 -0.835356 -0.835297 -0.835241 -0.835188 -0.835139 
185 -0.877085 -0.877085 -0.877081 -0.877074 -0.877062 -0.877046 -0.877026 -0.877001 -0.876971 -0.876936 
186 -0.887621 -0.887611 -0.887603 -0.887597 -0.887593 -0.887589 -0.887586 -0.887582 -0.887578 -0.887573 
187 -0.835271 -0.835243 -0.83521 -0.835172 -0.835129 -0.835081 -0.835028 -0.834971 -0.83491 -0.834846 
188 -0.861094 -0.861053 -0.861014 -0.86098 -0.860949 -0.860921 -0.860896 -0.860875 -0.860856 -0.860839 
189 -0.884248 -0.884215 -0.884187 -0.884164 -0.884146 -0.884132 -0.884122 -0.884116 -0.884114 -0.884114 
190 -0.853992 -0.85396 -0.853926 -0.853892 -0.853856 -0.853818 -0.85378 -0.853739 -0.853698 -0.853656 
191 -0.852468 -0.85245 -0.852432 -0.852414 -0.852396 -0.852378 -0.852359 -0.852341 -0.852323 -0.852305 
192 -0.807689 -0.807646 -0.807601 -0.807554 -0.807506 -0.807457 -0.807406 -0.807354 -0.807302 -0.807249 
193 -0.852468 -0.85245 -0.852432 -0.852414 -0.852396 -0.852378 -0.852359 -0.852341 -0.852323 -0.852305 
194 -0.862848 -0.862847 -0.862845 -0.862844 -0.862843 -0.862842 -0.862841 -0.862841 -0.862841 -0.862841 
195 -0.851369 -0.85127 -0.851175 -0.851086 -0.851002 -0.850926 -0.850856 -0.850793 -0.850737 -0.850689 
196 -0.846663 -0.846671 -0.84668 -0.846689 -0.846699 -0.846709 -0.846719 -0.84673 -0.846742 -0.846754 
197 -0.854236 -0.854183 -0.854129 -0.854075 -0.85402 -0.853964 -0.853907 -0.85385 -0.853793 -0.853735 
198 -0.852468 -0.85245 -0.852432 -0.852414 -0.852396 -0.852378 -0.852359 -0.852341 -0.852323 -0.852305 
199 -0.79517 -0.795174 -0.795174 -0.79517 -0.795162 -0.795149 -0.795131 -0.795108 -0.79508 -0.795047 
200 -0.830304 -0.830212 -0.830123 -0.830037 -0.829955 -0.829877 -0.829805 -0.829738 -0.829676 -0.82962 
201 -0.902654 -0.902598 -0.902547 -0.902501 -0.902462 -0.902428 -0.9024 -0.902378 -0.90236 -0.902348 
202 -0.852468 -0.85245 -0.852432 -0.852414 -0.852396 -0.852378 -0.852359 -0.852341 -0.852323 -0.852305 
203 -0.871975 -0.871953 -0.871929 -0.871904 -0.871877 -0.871849 -0.87182 -0.87179 -0.87176 -0.87173 
204 -0.853405 -0.853405 -0.853405 -0.853405 -0.853404 -0.853404 -0.853404 -0.853403 -0.853403 -0.853402 
205 -0.895184 -0.895173 -0.895166 -0.89516 -0.895157 -0.895155 -0.895154 -0.895154 -0.895155 -0.895155 
206 -0.852468 -0.85245 -0.852432 -0.852414 -0.852396 -0.852378 -0.852359 -0.852341 -0.852323 -0.852305 
207 -0.773215 -0.773164 -0.77311 -0.773054 -0.772997 -0.772939 -0.772879 -0.772819 -0.772758 -0.772697 
208 -0.856083 -0.855975 -0.855873 -0.855779 -0.855693 -0.855615 -0.855547 -0.855487 -0.855437 -0.855395 
209 -0.890767 -0.89076 -0.890753 -0.890746 -0.890739 -0.890731 -0.890722 -0.890712 -0.890701 -0.890688 
210 -0.913555 -0.913463 -0.913379 -0.913301 -0.913231 -0.913168 -0.913114 -0.913067 -0.913028 -0.912997 
211 -0.852468 -0.85245 -0.852432 -0.852414 -0.852396 -0.852378 -0.852359 -0.852341 -0.852323 -0.852305 
212 -0.852468 -0.85245 -0.852432 -0.852414 -0.852396 -0.852378 -0.852359 -0.852341 -0.852323 -0.852305 
213 -0.843169 -0.843149 -0.843131 -0.843115 -0.8431 -0.843086 -0.843074 -0.843064 -0.843054 -0.843047 
214 -0.760447 -0.760428 -0.760407 -0.760383 -0.760356 -0.760327 -0.760294 -0.760258 -0.760219 -0.760178 
215 -0.790834 -0.790698 -0.790565 -0.790436 -0.790313 -0.790195 -0.790085 -0.789984 -0.78989 -0.789807 
216 -0.798105 -0.797974 -0.797847 -0.797724 -0.797608 -0.797499 -0.797399 -0.797307 -0.797224 -0.797152 
217 -0.856742 -0.856752 -0.856763 -0.856773 -0.856783 -0.856792 -0.856802 -0.856811 -0.85682 -0.856829 
218 -0.838647 -0.838477 -0.838314 -0.838159 -0.838012 -0.837877 -0.837752 -0.83764 -0.83754 -0.837454 
219 -0.85293 -0.852915 -0.852901 -0.852886 -0.852872 -0.852857 -0.852842 -0.852827 -0.852812 -0.852798 
220 -0.945531 -0.945443 -0.945357 -0.945274 -0.945194 -0.945119 -0.945049 -0.944984 -0.944926 -0.944873 
221 -0.78567 -0.785564 -0.785459 -0.785356 -0.785256 -0.78516 -0.785068 -0.784982 -0.784901 -0.784826 
222 -0.730353 -0.730181 -0.730014 -0.729855 -0.729704 -0.729564 -0.729434 -0.729317 -0.729212 -0.72912 
223 -0.898896 -0.898768 -0.898643 -0.898522 -0.898406 -0.898296 -0.898193 -0.898098 -0.898013 -0.897936 
224 -0.91872 -0.918669 -0.918622 -0.918579 -0.91854 -0.918506 -0.918477 -0.918452 -0.918431 -0.918415 
225 -0.832458 -0.832427 -0.832394 -0.832361 -0.832326 -0.83229 -0.832252 -0.832214 -0.832174 -0.832133 
226 -0.798291 -0.798339 -0.798391 -0.798446 -0.798502 -0.798559 -0.798615 -0.798671 -0.798725 -0.798776 
227 -0.884615 -0.884456 -0.884296 -0.884138 -0.883984 -0.883834 -0.883691 -0.883557 -0.883431 -0.883316 
228 -0.822188 -0.822209 -0.82223 -0.822251 -0.822271 -0.822289 -0.822304 -0.822317 -0.822326 -0.822332 
229 -0.852468 -0.85245 -0.852432 -0.852414 -0.852396 -0.852378 -0.852359 -0.852341 -0.852323 -0.852305 
230 -0.852468 -0.85245 -0.852432 -0.852414 -0.852396 -0.852378 -0.852359 -0.852341 -0.852323 -0.852305 
231 -0.852468 -0.85245 -0.852432 -0.852414 -0.852396 -0.852378 -0.852359 -0.852341 -0.852323 -0.852305 
232 -1.08778 -1.08757 -1.08737 -1.08718 -1.087 -1.08683 -1.08668 -1.08655 -1.08644 -1.08634 
233 -0.852509 -0.85249 -0.852472 -0.852453 -0.852435 -0.852416 -0.852397 -0.852379 -0.85236 -0.852342 
234 -0.979751 -0.979651 -0.979554 -0.979461 -0.979373 -0.979291 -0.979216 -0.979147 -0.979086 -0.979033 
235 -0.639435 -0.639245 -0.639052 -0.638857 -0.638662 -0.63847 -0.638282 -0.638101 -0.637928 -0.637765 
236 -0.909776 -0.909743 -0.909714 -0.909688 -0.909666 -0.909647 -0.909632 -0.90962 -0.909611 -0.909605 
237 -1.1034 -1.1032 -1.103 -1.1028 -1.10262 -1.10245 -1.10229 -1.10215 -1.10202 -1.1019 
238 -0.853182 -0.853174 -0.853167 -0.853159 -0.853151 -0.853143 -0.853136 -0.853128 -0.85312 -0.853113 
239 -0.699559 -0.699372 -0.699179 -0.698982 -0.698784 -0.698587 -0.698394 -0.698206 -0.698026 -0.697855 
240 -0.760451 -0.76043 -0.760411 -0.760395 -0.760382 -0.76037 -0.760361 -0.760353 -0.760345 -0.760339 
241 -0.724886 -0.724808 -0.72473 -0.724652 -0.724574 -0.724498 -0.724423 -0.724351 -0.724281 -0.724214 
242 -0.852463 -0.852445 -0.852427 -0.852409 -0.852391 -0.852373 -0.852355 -0.852337 -0.852319 -0.852301 
243 -0.986349 -0.986275 -0.986204 -0.986135 -0.986071 -0.986011 -0.985955 -0.985904 -0.985859 -0.985819 
244 -1.11423 -1.11408 -1.11395 -1.11382 -1.1137 -1.11359 -1.11349 -1.11341 -1.11334 -1.11328 
245 -0.513408 -0.513306 -0.513197 -0.513084 -0.512966 -0.512845 -0.512721 -0.512595 -0.512469 -0.512343 
246 -1.04649 -1.04638 -1.04627 -1.04616 -1.04607 -1.04598 -1.0459 -1.04583 -1.04577 -1.04573 
247 -0.849532 -0.849517 -0.849502 -0.849487 -0.849472 -0.849457 -0.849441 -0.849426 -0.84941 -0.849395 
248 -0.852468 -0.85245 -0.852432 -0.852414 -0.852396 -0.852378 -0.852359 -0.852341 -0.852323 -0.852305 
249 -0.601578 -0.601469 -0.601357 -0.601244 -0.60113 -0.601016 -0.600903 -0.600793 -0.600685 -0.600582 
250 -0.812855 -0.812912 -0.812974 -0.813039 -0.813106 -0.813174 -0.813242 -0.813308 -0.813371 -0.81343 
251 -0.765552 -0.76561 -0.765674 -0.765743 -0.765815 -0.765889 -0.765963 -0.766036 -0.766107 -0.766175 
252 -0.735705 -0.735637 -0.73557 -0.735505 -0.735441 -0.73538 -0.735322 -0.735267 -0.735215 -0.735167 
253 -0.852468 -0.85245 -0.852432 -0.852414 -0.852396 -0.852377 -0.852359 -0.852341 -0.852323 -0.852305 
254 -0.883695 -0.8837 -0.883705 -0.883709 -0.883712 -0.883714 -0.883713 -0.883711 -0.883707 -0.8837 
255 -0.851965 -0.851949 -0.851934 -0.851919 -0.851903 -0.851888 -0.851873 -0.851858 -0.851843 -0.851828 
256 -0.861597 -0.861595 -0.861592 -0.861589 -0.861587 -0.861584 -0.861581 -0.861578 -0.861575 -0.861572 
257 -1.04555 -1.04548 -1.04542 -1.04536 -1.0453 -1.04525 -1.0452 -1.04516 -1.04512 -1.04508 
258 -0.824741 -0.824761 -0.82478 -0.824798 -0.824813 -0.824826 -0.824835 -0.82484 -0.824842 -0.824839 
259 -0.873695 -0.873695 -0.873693 -0.873688 -0.873681 -0.873671 -0.873658 -0.873642 -0.873624 -0.873604 
260 -0.62331 -0.623274 -0.623237 -0.6232 -0.623162 -0.623124 -0.623084 -0.623045 -0.623004 -0.622961 
261 -0.993487 -0.993424 -0.993364 -0.993306 -0.993251 -0.993201 -0.993154 -0.993112 -0.993074 -0.993041 
262 -1.02582 -1.02576 -1.02571 -1.02566 -1.02561 -1.02556 -1.02552 -1.02548 -1.02545 -1.02542 
263 -0.852348 -0.852333 -0.852318 -0.852302 -0.852287 -0.852272 -0.852256 -0.852241 -0.852226 -0.852211 
264 -0.835194 -0.83517 -0.835145 -0.835118 -0.835091 -0.835064 -0.835036 -0.835008 -0.83498 -0.834952 
265 -0.708452 -0.708404 -0.708359 -0.708315 -0.708274 -0.708236 -0.7082 -0.708166 -0.708135 -0.708107 
266 -0.667927 -0.667878 -0.667827 -0.667774 -0.667719 -0.667662 -0.667604 -0.667545 -0.667485 -0.667425 
267 -0.910342 -0.910323 -0.910307 -0.910292 -0.91028 -0.910269 -0.910261 -0.910254 -0.910249 -0.910245 
268 -0.841519 -0.841534 -0.841548 -0.841562 -0.841575 -0.841586 -0.841596 -0.841605 -0.841613 -0.84162 
269 -0.852466 -0.852448 -0.85243 -0.852412 -0.852394 -0.852376 -0.852358 -0.85234 -0.852322 -0.852304 
270 -1.00656 -1.00652 -1.00649 -1.00646 -1.00642 -1.0064 -1.00637 -1.00634 -1.00632 -1.0063 
271 -0.966596 -0.966549 -0.966504 -0.966463 -0.966424 -0.966389 -0.966358 -0.96633 -0.966307 -0.966287 
272 -0.689617 -0.689583 -0.689556 -0.689536 -0.689522 -0.689515 -0.689513 -0.689518 -0.689527 -0.689541 
273 -0.772846 -0.772838 -0.772841 -0.772855 -0.772878 -0.772909 -0.772949 -0.772996 -0.773048 -0.773106 
274 -0.731102 -0.731081 -0.731064 -0.731049 -0.731037 -0.731028 -0.731022 -0.731019 -0.731019 -0.731022 
275 -0.852111 -0.852097 -0.852082 -0.852068 -0.852053 -0.852039 -0.852025 -0.852012 -0.851998 -0.851985 
276 -0.978391 -0.978355 -0.978321 -0.97829 -0.978261 -0.978235 -0.978212 -0.978191 -0.978173 -0.978158 
277 -0.852468 -0.85245 -0.852432 -0.852414 -0.852396 -0.852378 -0.852359 -0.852341 -0.852323 -0.852305 
278 -0.712707 -0.712706 -0.712706 -0.712707 -0.712709 -0.712711 -0.712713 -0.712714 -0.712715 -0.712714 
279 -0.763636 -0.763624 -0.763619 -0.76362 -0.763627 -0.76364 -0.763658 -0.76368 -0.763706 -0.763735 
280 -0.937566 -0.937537 -0.93751 -0.937485 -0.937462 -0.937441 -0.937422 -0.937406 -0.937391 -0.937379 
281 -0.831103 -0.830957 -0.83082 -0.830694 -0.830579 -0.830475 -0.830382 -0.8303 -0.83023 -0.83017 
282 -0.940484 -0.940469 -0.940455 -0.940442 -0.94043 -0.94042 -0.94041 -0.940402 -0.940394 -0.940387 
283 -0.896538 -0.896537 -0.896536 -0.896536 -0.896537 -0.896538 -0.896539 -0.896541 -0.896542 -0.896543 
284 -0.806001 -0.805883 -0.805778 -0.805687 -0.805609 -0.805544 -0.805492 -0.805453 -0.805425 -0.805408 
285 -0.745488 -0.745346 -0.745212 -0.745088 -0.744977 -0.744878 -0.744793 -0.744724 -0.74467 -0.744634 
286 -0.852468 -0.85245 -0.852432 -0.852414 -0.852396 -0.852378 -0.852359 -0.852341 -0.852323 -0.852305 
287 -0.771166 -0.771132 -0.771098 -0.771065 -0.771035 -0.771008 -0.770986 -0.770969 -0.77096 -0.770958 
288 -0.927618 -0.927601 -0.927586 -0.927572 -0.92756 -0.92755 -0.927541 -0.927533 -0.927526 -0.927521 