VARIABLES = "Cell" "Mode 0" "Mode 1" "Mode 2" "Mode 3" "Mode 4" "Mode 5" "Mode 6" "Mode 7" "Mode 8" "Mode 9" 
ZONE T = Iteration201
0 -0.850834 -0.850837 -0.850838 -0.850838 -0.850837 -0.850833 -0.850828 -0.850822 -0.850813 -0.850803 
1 -0.850834 -0.850837 -0.850838 -0.850838 -0.850837 -0.850833 -0.850828 -0.850822 -0.850813 -0.850803 
2 -0.850834 -0.850837 -0.850838 -0.850838 -0.850837 -0.850833 -0.850828 -0.850822 -0.850813 -0.850803 
3 -0.850834 -0.850837 -0.850838 -0.850838 -0.850837 -0.850833 -0.850828 -0.850822 -0.850813 -0.850803 
4 -0.850834 -0.850837 -0.850838 -0.850838 -0.850837 -0.850833 -0.850828 -0.850822 -0.850813 -0.850803 
5 -0.850834 -0.850837 -0.850838 -0.850838 -0.850837 -0.850833 -0.850828 -0.850822 -0.850813 -0.850803 
6 -0.850834 -0.850837 -0.850838 -0.850838 -0.850837 -0.850833 -0.850828 -0.850822 -0.850813 -0.850803 
7 -0.850834 -0.850837 -0.850838 -0.850838 -0.850837 -0.850833 -0.850828 -0.850822 -0.850813 -0.850803 
8 -0.850834 -0.850837 -0.850838 -0.850838 -0.850837 -0.850833 -0.850828 -0.850822 -0.850813 -0.850803 
9 -0.850834 -0.850837 -0.850838 -0.850838 -0.850837 -0.850833 -0.850828 -0.850822 -0.850813 -0.850803 
10 -0.850834 -0.850837 -0.850838 -0.850838 -0.850837 -0.850833 -0.850828 -0.850822 -0.850813 -0.850803 
11 -0.850834 -0.850837 -0.850838 -0.850838 -0.850837 -0.850833 -0.850828 -0.850822 -0.850813 -0.850803 
12 -0.850834 -0.850837 -0.850838 -0.850838 -0.850837 -0.850833 -0.850828 -0.850822 -0.850813 -0.850803 
13 -0.850834 -0.850837 -0.850838 -0.850838 -0.850837 -0.850833 -0.850828 -0.850822 -0.850813 -0.850803 
14 -0.850834 -0.850837 -0.850838 -0.850838 -0.850837 -0.850833 -0.850828 -0.850822 -0.850813 -0.850803 
15 -0.850834 -0.850837 -0.850838 -0.850838 -0.850837 -0.850833 -0.850828 -0.850822 -0.850813 -0.850803 
16 -0.850834 -0.850837 -0.850838 -0.850838 -0.850837 -0.850833 -0.850828 -0.850822 -0.850813 -0.850803 
17 -0.850834 -0.850837 -0.850838 -0.850838 -0.850837 -0.850833 -0.850828 -0.850822 -0.850813 -0.850803 
18 -0.850834 -0.850837 -0.850838 -0.850838 -0.850837 -0.850833 -0.850828 -0.850822 -0.850813 -0.850803 
19 -0.850834 -0.850837 -0.850838 -0.850838 -0.850837 -0.850833 -0.850828 -0.850822 -0.850813 -0.850803 
20 -0.850834 -0.850837 -0.850838 -0.850838 -0.850837 -0.850833 -0.850828 -0.850822 -0.850813 -0.850803 
21 -0.850834 -0.850837 -0.850838 -0.850838 -0.850837 -0.850833 -0.850828 -0.850822 -0.850813 -0.850803 
22 -0.850834 -0.850837 -0.850838 -0.850838 -0.850837 -0.850833 -0.850828 -0.850822 -0.850813 -0.850803 
23 -0.850834 -0.850837 -0.850838 -0.850838 -0.850837 -0.850833 -0.850828 -0.850822 -0.850813 -0.850803 
24 -0.850834 -0.850837 -0.850838 -0.850838 -0.850837 -0.850833 -0.850828 -0.850822 -0.850813 -0.850803 
25 -0.850834 -0.850837 -0.850838 -0.850838 -0.850837 -0.850833 -0.850828 -0.850822 -0.850813 -0.850803 
26 -0.850834 -0.850837 -0.850838 -0.850838 -0.850837 -0.850833 -0.850828 -0.850822 -0.850813 -0.850803 
27 -0.850834 -0.850837 -0.850838 -0.850838 -0.850837 -0.850833 -0.850828 -0.850822 -0.850813 -0.850803 
28 -0.850834 -0.850837 -0.850838 -0.850838 -0.850837 -0.850833 -0.850828 -0.850822 -0.850813 -0.850803 
29 -0.850834 -0.850837 -0.850838 -0.850838 -0.850837 -0.850833 -0.850828 -0.850822 -0.850813 -0.850803 
30 -0.850834 -0.850837 -0.850838 -0.850838 -0.850837 -0.850833 -0.850828 -0.850822 -0.850813 -0.850803 
31 -0.850834 -0.850837 -0.850838 -0.850838 -0.850837 -0.850833 -0.850828 -0.850822 -0.850813 -0.850803 
32 -0.850834 -0.850837 -0.850838 -0.850838 -0.850837 -0.850833 -0.850828 -0.850822 -0.850813 -0.850803 
33 -0.850834 -0.850837 -0.850838 -0.850838 -0.850837 -0.850833 -0.850828 -0.850822 -0.850813 -0.850803 
34 -0.850834 -0.850837 -0.850838 -0.850838 -0.850837 -0.850833 -0.850828 -0.850822 -0.850813 -0.850803 
35 -0.850834 -0.850837 -0.850838 -0.850838 -0.850837 -0.850833 -0.850828 -0.850822 -0.850813 -0.850803 
36 -0.850834 -0.850837 -0.850838 -0.850838 -0.850837 -0.850833 -0.850828 -0.850822 -0.850813 -0.850803 
37 -0.850834 -0.850837 -0.850838 -0.850838 -0.850837 -0.850833 -0.850828 -0.850822 -0.850813 -0.850803 
38 -0.850834 -0.850837 -0.850838 -0.850838 -0.850837 -0.850833 -0.850828 -0.850822 -0.850813 -0.850803 
39 -0.850834 -0.850837 -0.850838 -0.850838 -0.850837 -0.850833 -0.850828 -0.850822 -0.850813 -0.850803 
40 -0.850834 -0.850837 -0.850838 -0.850838 -0.850837 -0.850833 -0.850828 -0.850822 -0.850813 -0.850803 
41 -0.850834 -0.850837 -0.850838 -0.850838 -0.850837 -0.850833 -0.850828 -0.850822 -0.850813 -0.850803 
42 -0.850834 -0.850837 -0.850838 -0.850838 -0.850837 -0.850833 -0.850828 -0.850822 -0.850813 -0.850803 
43 -0.850834 -0.850837 -0.850838 -0.850838 -0.850837 -0.850833 -0.850828 -0.850822 -0.850813 -0.850803 
44 -0.850834 -0.850837 -0.850838 -0.850838 -0.850837 -0.850833 -0.850828 -0.850822 -0.850813 -0.850803 
45 -0.850834 -0.850837 -0.850838 -0.850838 -0.850837 -0.850833 -0.850828 -0.850822 -0.850813 -0.850803 
46 -0.850834 -0.850837 -0.850838 -0.850838 -0.850837 -0.850833 -0.850828 -0.850822 -0.850813 -0.850803 
47 -0.850834 -0.850837 -0.850838 -0.850838 -0.850837 -0.850833 -0.850828 -0.850822 -0.850813 -0.850803 
48 -0.850834 -0.850837 -0.850838 -0.850838 -0.850837 -0.850833 -0.850828 -0.850822 -0.850813 -0.850803 
49 -0.850834 -0.850837 -0.850838 -0.850838 -0.850837 -0.850833 -0.850828 -0.850822 -0.850813 -0.850803 
50 -0.850834 -0.850837 -0.850838 -0.850838 -0.850837 -0.850833 -0.850828 -0.850822 -0.850813 -0.850803 
51 -0.850834 -0.850837 -0.850838 -0.850838 -0.850837 -0.850833 -0.850828 -0.850822 -0.850813 -0.850803 
52 -0.850834 -0.850837 -0.850838 -0.850838 -0.850837 -0.850833 -0.850828 -0.850822 -0.850813 -0.850803 
53 -0.850834 -0.850837 -0.850838 -0.850838 -0.850837 -0.850833 -0.850828 -0.850822 -0.850813 -0.850803 
54 -0.850834 -0.850837 -0.850838 -0.850838 -0.850837 -0.850833 -0.850828 -0.850822 -0.850813 -0.850803 
55 -0.850834 -0.850837 -0.850838 -0.850838 -0.850837 -0.850833 -0.850828 -0.850822 -0.850813 -0.850803 
56 -0.850834 -0.850837 -0.850838 -0.850838 -0.850837 -0.850833 -0.850828 -0.850822 -0.850813 -0.850803 
57 -0.850834 -0.850837 -0.850838 -0.850838 -0.850837 -0.850833 -0.850828 -0.850822 -0.850813 -0.850803 
58 -0.850834 -0.850837 -0.850838 -0.850838 -0.850837 -0.850833 -0.850828 -0.850822 -0.850813 -0.850803 
59 -0.850834 -0.850837 -0.850838 -0.850838 -0.850837 -0.850833 -0.850828 -0.850822 -0.850813 -0.850803 
60 -0.850834 -0.850837 -0.850838 -0.850838 -0.850837 -0.850833 -0.850828 -0.850822 -0.850813 -0.850803 
61 -0.850834 -0.850837 -0.850838 -0.850838 -0.850837 -0.850833 -0.850828 -0.850822 -0.850813 -0.850803 
62 -0.850834 -0.850837 -0.850838 -0.850838 -0.850837 -0.850833 -0.850828 -0.850822 -0.850813 -0.850803 
63 -0.850834 -0.850837 -0.850838 -0.850838 -0.850837 -0.850833 -0.850828 -0.850822 -0.850813 -0.850803 
64 -0.850834 -0.850837 -0.850838 -0.850838 -0.850837 -0.850833 -0.850828 -0.850822 -0.850813 -0.850803 
65 -0.850834 -0.850837 -0.850838 -0.850838 -0.850837 -0.850833 -0.850828 -0.850822 -0.850813 -0.850803 
66 -0.850834 -0.850837 -0.850838 -0.850838 -0.850837 -0.850833 -0.850828 -0.850822 -0.850813 -0.850803 
67 -0.850834 -0.850837 -0.850838 -0.850838 -0.850837 -0.850833 -0.850828 -0.850822 -0.850813 -0.850803 
68 -0.850834 -0.850837 -0.850838 -0.850838 -0.850837 -0.850833 -0.850828 -0.850822 -0.850813 -0.850803 
69 -0.850834 -0.850837 -0.850838 -0.850838 -0.850837 -0.850833 -0.850828 -0.850822 -0.850813 -0.850803 
70 -0.850834 -0.850837 -0.850838 -0.850838 -0.850837 -0.850833 -0.850828 -0.850822 -0.850813 -0.850803 
71 -0.850834 -0.850837 -0.850838 -0.850838 -0.850837 -0.850833 -0.850828 -0.850822 -0.850813 -0.850803 
72 -0.850834 -0.850837 -0.850838 -0.850838 -0.850837 -0.850833 -0.850828 -0.850822 -0.850813 -0.850803 
73 -0.850834 -0.850837 -0.850838 -0.850838 -0.850837 -0.850833 -0.850828 -0.850822 -0.850813 -0.850803 
74 -0.850834 -0.850837 -0.850838 -0.850838 -0.850837 -0.850833 -0.850828 -0.850822 -0.850813 -0.850803 
75 -0.850834 -0.850837 -0.850838 -0.850838 -0.850837 -0.850833 -0.850828 -0.850822 -0.850813 -0.850803 
76 -0.850834 -0.850837 -0.850838 -0.850838 -0.850837 -0.850833 -0.850828 -0.850822 -0.850813 -0.850803 
77 -0.850834 -0.850837 -0.850838 -0.850838 -0.850837 -0.850833 -0.850828 -0.850822 -0.850813 -0.850803 
78 -0.850834 -0.850837 -0.850838 -0.850838 -0.850837 -0.850833 -0.850828 -0.850822 -0.850813 -0.850803 
79 -0.850834 -0.850837 -0.850838 -0.850838 -0.850837 -0.850834 -0.850829 -0.850822 -0.850813 -0.850803 
80 -0.850834 -0.850837 -0.850838 -0.850838 -0.850837 -0.850833 -0.850828 -0.850822 -0.850813 -0.850803 
81 -0.850834 -0.850837 -0.850838 -0.850838 -0.850837 -0.850833 -0.850828 -0.850822 -0.850813 -0.850803 
82 -0.850834 -0.850837 -0.850838 -0.850838 -0.850837 -0.850833 -0.850828 -0.850822 -0.850813 -0.850803 
83 -0.850834 -0.850837 -0.850838 -0.850838 -0.850837 -0.850833 -0.850828 -0.850822 -0.850813 -0.850803 
84 -0.850834 -0.850837 -0.850838 -0.850838 -0.850837 -0.850834 -0.850829 -0.850822 -0.850813 -0.850803 
85 -0.850834 -0.850837 -0.850838 -0.850838 -0.850837 -0.850834 -0.850829 -0.850822 -0.850813 -0.850803 
86 -0.850834 -0.850837 -0.850838 -0.850838 -0.850837 -0.850833 -0.850828 -0.850822 -0.850813 -0.850803 
87 -0.850834 -0.850837 -0.850838 -0.850838 -0.850837 -0.850833 -0.850828 -0.850822 -0.850813 -0.850803 
88 -0.850834 -0.850837 -0.850838 -0.850838 -0.850837 -0.850833 -0.850828 -0.850822 -0.850813 -0.850803 
89 -0.850828 -0.850831 -0.850833 -0.850833 -0.850832 -0.850829 -0.850824 -0.850817 -0.850809 -0.850799 
90 -0.850834 -0.850837 -0.850838 -0.850838 -0.850837 -0.850833 -0.850828 -0.850822 -0.850813 -0.850803 
91 -0.850839 -0.850842 -0.850843 -0.850843 -0.850841 -0.850838 -0.850833 -0.850826 -0.850817 -0.850807 
92 -0.850833 -0.850836 -0.850838 -0.850838 -0.850836 -0.850833 -0.850828 -0.850822 -0.850813 -0.850803 
93 -0.850831 -0.850834 -0.850836 -0.850836 -0.850835 -0.850832 -0.850827 -0.85082 -0.850812 -0.850802 
94 -0.850834 -0.850837 -0.850838 -0.850838 -0.850837 -0.850833 -0.850828 -0.850822 -0.850813 -0.850803 
95 -0.850838 -0.850841 -0.850843 -0.850843 -0.850842 -0.850839 -0.850834 -0.850827 -0.850819 -0.850809 
96 -0.850838 -0.85084 -0.850842 -0.850842 -0.85084 -0.850836 -0.850831 -0.850824 -0.850816 -0.850805 
97 -0.850832 -0.850835 -0.850837 -0.850837 -0.850836 -0.850833 -0.850828 -0.850821 -0.850813 -0.850803 
98 -0.850834 -0.850837 -0.850838 -0.850838 -0.850837 -0.850833 -0.850828 -0.850822 -0.850813 -0.850803 
99 -0.850811 -0.850812 -0.850812 -0.850811 -0.850808 -0.850804 -0.850798 -0.85079 -0.850781 -0.85077 
100 -0.850805 -0.850811 -0.850815 -0.850817 -0.850818 -0.850817 -0.850814 -0.850809 -0.850803 -0.850794 
101 -0.850831 -0.850834 -0.850836 -0.850836 -0.850834 -0.850831 -0.850826 -0.850819 -0.85081 -0.8508 
102 -0.850808 -0.850811 -0.850812 -0.850811 -0.850809 -0.850806 -0.850801 -0.850794 -0.850786 -0.850776 
103 -0.850833 -0.850837 -0.850838 -0.850838 -0.850837 -0.850833 -0.850829 -0.850822 -0.850813 -0.850803 
104 -0.850741 -0.850746 -0.85075 -0.850752 -0.850753 -0.850752 -0.850749 -0.850745 -0.850739 -0.850731 
105 -0.850916 -0.850918 -0.850918 -0.850917 -0.850914 -0.850909 -0.850903 -0.850895 -0.850885 -0.850873 
106 -0.850832 -0.850835 -0.850837 -0.850837 -0.850835 -0.850832 -0.850827 -0.850821 -0.850812 -0.850802 
107 -0.850834 -0.850837 -0.850838 -0.850838 -0.850837 -0.850833 -0.850828 -0.850822 -0.850813 -0.850803 
108 -0.850816 -0.850819 -0.85082 -0.85082 -0.850819 -0.850816 -0.850811 -0.850804 -0.850796 -0.850785 
109 -0.850859 -0.85086 -0.850859 -0.850857 -0.850854 -0.850849 -0.850842 -0.850834 -0.850823 -0.850812 
110 -0.851304 -0.851292 -0.851278 -0.851263 -0.851246 -0.851228 -0.851207 -0.851185 -0.851161 -0.851135 
111 -0.850716 -0.850713 -0.850709 -0.850703 -0.850697 -0.850689 -0.85068 -0.850669 -0.850658 -0.850645 
112 -0.85083 -0.850833 -0.850835 -0.850835 -0.850834 -0.850831 -0.850826 -0.85082 -0.850811 -0.850801 
113 -0.850834 -0.850837 -0.850838 -0.850838 -0.850837 -0.850833 -0.850828 -0.850822 -0.850813 -0.850803 
114 -0.850977 -0.850976 -0.850974 -0.85097 -0.850965 -0.850957 -0.850948 -0.850937 -0.850925 -0.85091 
115 -0.850446 -0.850474 -0.8505 -0.850524 -0.850546 -0.850566 -0.850583 -0.850598 -0.850611 -0.850622 
116 -0.850812 -0.850813 -0.850812 -0.85081 -0.850807 -0.850802 -0.850795 -0.850787 -0.850777 -0.850766 
117 -0.851024 -0.850999 -0.850972 -0.850945 -0.850916 -0.850887 -0.850856 -0.850824 -0.850791 -0.850757 
118 -0.85149 -0.8515 -0.851508 -0.851514 -0.851516 -0.851517 -0.851514 -0.851509 -0.851501 -0.851491 
119 -0.851416 -0.851418 -0.851419 -0.851417 -0.851412 -0.851406 -0.851397 -0.851386 -0.851372 -0.851356 
120 -0.852436 -0.852404 -0.85237 -0.852334 -0.852294 -0.852252 -0.852207 -0.85216 -0.852109 -0.852056 
121 -0.84896 -0.848992 -0.849025 -0.849057 -0.84909 -0.849123 -0.849157 -0.84919 -0.849223 -0.849255 
122 -0.85196 -0.851981 -0.851999 -0.852014 -0.852025 -0.852033 -0.852037 -0.852038 -0.852036 -0.852029 
123 -0.851276 -0.851273 -0.851268 -0.851261 -0.851252 -0.851241 -0.851229 -0.851215 -0.851198 -0.85118 
124 -0.851047 -0.851023 -0.850999 -0.850973 -0.850947 -0.850919 -0.850891 -0.850861 -0.850831 -0.850799 
125 -0.85061 -0.850652 -0.850695 -0.850737 -0.850779 -0.85082 -0.85086 -0.850899 -0.850938 -0.850975 
126 -0.850834 -0.850837 -0.850838 -0.850838 -0.850837 -0.850833 -0.850828 -0.850822 -0.850813 -0.850803 
127 -0.84947 -0.849489 -0.849505 -0.849519 -0.849529 -0.849537 -0.849542 -0.849544 -0.849543 -0.849539 
128 -0.851317 -0.851279 -0.85124 -0.851201 -0.85116 -0.851119 -0.851077 -0.851034 -0.85099 -0.850945 
129 -0.855319 -0.855232 -0.855141 -0.855049 -0.854953 -0.854855 -0.854754 -0.854651 -0.854545 -0.854436 
130 -0.854298 -0.854284 -0.854269 -0.854254 -0.854237 -0.854219 -0.8542 -0.854179 -0.854157 -0.854134 
131 -0.848091 -0.848153 -0.848216 -0.848278 -0.848339 -0.848401 -0.848461 -0.848522 -0.848581 -0.848639 
132 -0.845935 -0.845995 -0.846055 -0.846115 -0.846175 -0.846235 -0.846295 -0.846355 -0.846414 -0.846474 
133 -0.852494 -0.852511 -0.852525 -0.852537 -0.852546 -0.852552 -0.852554 -0.852553 -0.852549 -0.852542 
134 -0.848663 -0.848709 -0.848754 -0.848797 -0.84884 -0.848881 -0.84892 -0.848958 -0.848994 -0.849028 
135 -0.847164 -0.847189 -0.847211 -0.84723 -0.847246 -0.847259 -0.847269 -0.847276 -0.84728 -0.847281 
136 -0.850834 -0.850837 -0.850838 -0.850838 -0.850837 -0.850834 -0.850829 -0.850822 -0.850813 -0.850803 
137 -0.850901 -0.8509 -0.850898 -0.850895 -0.85089 -0.850884 -0.850876 -0.850866 -0.850854 -0.850841 
138 -0.850989 -0.850966 -0.850943 -0.850919 -0.850894 -0.850869 -0.850844 -0.850817 -0.850791 -0.850763 
139 -0.847489 -0.847544 -0.847597 -0.84765 -0.847701 -0.84775 -0.847797 -0.847843 -0.847886 -0.847926 
140 -0.851229 -0.851245 -0.851258 -0.851269 -0.851278 -0.851284 -0.851287 -0.851288 -0.851286 -0.851281 
141 -0.85771 -0.857646 -0.85758 -0.857512 -0.857441 -0.857368 -0.857292 -0.857214 -0.857134 -0.857053 
142 -0.842576 -0.842589 -0.8426 -0.842608 -0.842614 -0.842618 -0.84262 -0.842618 -0.842615 -0.842609 
143 -0.856093 -0.856116 -0.856138 -0.856158 -0.856176 -0.856193 -0.856208 -0.85622 -0.856231 -0.856239 
144 -0.849231 -0.849265 -0.849299 -0.849335 -0.849372 -0.84941 -0.849448 -0.849487 -0.849526 -0.849565 
145 -0.844182 -0.844153 -0.844123 -0.844092 -0.844061 -0.844029 -0.843997 -0.843964 -0.84393 -0.843896 
146 -0.851545 -0.851581 -0.851619 -0.851658 -0.851698 -0.85174 -0.851783 -0.851827 -0.851873 -0.85192 
147 -0.858947 -0.858908 -0.858864 -0.858814 -0.85876 -0.8587 -0.858635 -0.858565 -0.858489 -0.858408 
148 -0.842694 -0.842758 -0.842824 -0.842894 -0.842965 -0.843039 -0.843115 -0.843193 -0.843274 -0.843357 
149 -0.856295 -0.856253 -0.85621 -0.856164 -0.856118 -0.856069 -0.856019 -0.855968 -0.855915 -0.855861 
150 -0.859697 -0.859826 -0.859953 -0.860077 -0.860198 -0.860317 -0.860432 -0.860544 -0.860652 -0.860757 
151 -0.84471 -0.844728 -0.844745 -0.844762 -0.844778 -0.844793 -0.844807 -0.84482 -0.844833 -0.844844 
152 -0.850225 -0.850291 -0.850355 -0.850416 -0.850475 -0.850531 -0.850584 -0.850634 -0.850681 -0.850725 
153 -0.846607 -0.846662 -0.846718 -0.846775 -0.846833 -0.846892 -0.846952 -0.847012 -0.847074 -0.847137 
154 -0.845417 -0.845436 -0.845457 -0.845481 -0.845507 -0.845535 -0.845565 -0.845597 -0.845631 -0.845667 
155 -0.844881 -0.844834 -0.844783 -0.844729 -0.84467 -0.844608 -0.844541 -0.84447 -0.844395 -0.844316 
156 -0.855989 -0.855994 -0.856 -0.856006 -0.856012 -0.856018 -0.856023 -0.856027 -0.856031 -0.856033 
157 -0.856868 -0.856899 -0.856929 -0.856957 -0.856984 -0.857008 -0.857031 -0.857051 -0.85707 -0.857086 
158 -0.842713 -0.842556 -0.842394 -0.842229 -0.84206 -0.841886 -0.841709 -0.841529 -0.841344 -0.841156 
159 -0.851135 -0.851133 -0.851129 -0.851123 -0.851115 -0.851106 -0.851094 -0.851081 -0.851066 -0.851048 
160 -0.858239 -0.858374 -0.858505 -0.858634 -0.85876 -0.858883 -0.859003 -0.859119 -0.859232 -0.859341 
161 -0.836243 -0.836228 -0.836211 -0.836192 -0.836172 -0.83615 -0.836126 -0.836101 -0.836074 -0.836045 
162 -0.843643 -0.843647 -0.843653 -0.843659 -0.843665 -0.843674 -0.843683 -0.843693 -0.843706 -0.84372 
163 -0.843321 -0.843212 -0.843098 -0.842978 -0.842853 -0.842723 -0.842588 -0.84245 -0.842307 -0.84216 
164 -0.85554 -0.855531 -0.855526 -0.855524 -0.855525 -0.855529 -0.855534 -0.855542 -0.85555 -0.855559 
165 -0.859563 -0.859612 -0.859656 -0.859696 -0.85973 -0.85976 -0.859785 -0.859804 -0.859818 -0.859827 
166 -0.836396 -0.836323 -0.836248 -0.836171 -0.836092 -0.836011 -0.835928 -0.835845 -0.83576 -0.835673 
167 -0.850785 -0.85076 -0.850738 -0.850718 -0.850701 -0.850687 -0.850675 -0.850664 -0.850656 -0.85065 
168 -0.837337 -0.837311 -0.837284 -0.837258 -0.837231 -0.837204 -0.837177 -0.837151 -0.837125 -0.837099 
169 -0.859502 -0.859583 -0.859659 -0.85973 -0.859795 -0.859856 -0.859911 -0.85996 -0.860005 -0.860044 
170 -0.861462 -0.861437 -0.861414 -0.861395 -0.861377 -0.861362 -0.861349 -0.861336 -0.861325 -0.861314 
171 -0.862272 -0.862266 -0.862259 -0.862253 -0.862247 -0.862239 -0.862231 -0.862221 -0.86221 -0.862197 
172 -0.84152 -0.841477 -0.841431 -0.841382 -0.84133 -0.841274 -0.841215 -0.841152 -0.841086 -0.841015 
173 -0.850834 -0.850837 -0.850838 -0.850838 -0.850837 -0.850833 -0.850828 -0.850822 -0.850813 -0.850803 
174 -0.859015 -0.858915 -0.858818 -0.858723 -0.858631 -0.858543 -0.858461 -0.858383 -0.858312 -0.858247 
175 -0.868856 -0.86872 -0.868589 -0.868464 -0.868345 -0.868234 -0.86813 -0.868035 -0.867947 -0.867868 
176 -0.842116 -0.842088 -0.842062 -0.842036 -0.842012 -0.841988 -0.841965 -0.841942 -0.84192 -0.841897 
177 -0.833529 -0.833508 -0.833483 -0.833455 -0.833423 -0.833388 -0.833348 -0.833305 -0.833257 -0.833205 
178 -0.866448 -0.866292 -0.866144 -0.866003 -0.865872 -0.865751 -0.865641 -0.865542 -0.865455 -0.865381 
179 -0.850834 -0.850837 -0.850838 -0.850838 -0.850837 -0.850833 -0.850828 -0.850822 -0.850813 -0.850803 
180 -0.846405 -0.846288 -0.846172 -0.84606 -0.845953 -0.845851 -0.845756 -0.845668 -0.845589 -0.84552 
181 -0.870829 -0.87077 -0.870713 -0.870657 -0.870602 -0.870548 -0.870495 -0.870443 -0.870392 -0.870343 
182 -0.826092 -0.826082 -0.826073 -0.826063 -0.826052 -0.82604 -0.826027 -0.826012 -0.825994 -0.825975 
183 -0.833261 -0.833209 -0.833163 -0.833125 -0.833094 -0.833069 -0.833052 -0.833041 -0.833036 -0.833038 
184 -0.834655 -0.834658 -0.834653 -0.83464 -0.83462 -0.834592 -0.834555 -0.83451 -0.834456 -0.834395 
185 -0.873037 -0.872924 -0.872819 -0.872722 -0.872634 -0.872554 -0.872483 -0.87242 -0.872367 -0.872321 
186 -0.883874 -0.883721 -0.883571 -0.883426 -0.883286 -0.883153 -0.883028 -0.882911 -0.882804 -0.882708 
187 -0.831765 -0.831783 -0.831802 -0.831823 -0.831844 -0.831866 -0.831887 -0.831906 -0.831923 -0.831938 
188 -0.857817 -0.857717 -0.857622 -0.857533 -0.85745 -0.857374 -0.857305 -0.857243 -0.857189 -0.857144 
189 -0.88114 -0.881012 -0.880886 -0.880762 -0.880642 -0.880525 -0.880414 -0.880309 -0.880211 -0.880122 
190 -0.846274 -0.846255 -0.846235 -0.846215 -0.846196 -0.846176 -0.846157 -0.846138 -0.846118 -0.846099 
191 -0.850834 -0.850837 -0.850838 -0.850838 -0.850837 -0.850833 -0.850828 -0.850822 -0.850813 -0.850803 
192 -0.804207 -0.804173 -0.804148 -0.804131 -0.804122 -0.804122 -0.804129 -0.804143 -0.804164 -0.80419 
193 -0.850834 -0.850837 -0.850838 -0.850838 -0.850837 -0.850833 -0.850828 -0.850822 -0.850813 -0.850803 
194 -0.860514 -0.860548 -0.860576 -0.860597 -0.860613 -0.860621 -0.860624 -0.860619 -0.860608 -0.86059 
195 -0.847568 -0.847507 -0.84745 -0.847397 -0.847348 -0.847301 -0.847257 -0.847214 -0.847174 -0.847134 
196 -0.846567 -0.846522 -0.846473 -0.846421 -0.846365 -0.846306 -0.846243 -0.846176 -0.846106 -0.846031 
197 -0.845785 -0.84581 -0.845836 -0.845864 -0.845892 -0.845922 -0.845953 -0.845985 -0.846018 -0.846051 
198 -0.850834 -0.850837 -0.850838 -0.850838 -0.850837 -0.850833 -0.850828 -0.850822 -0.850813 -0.850803 
199 -0.79246 -0.792419 -0.792385 -0.792356 -0.792333 -0.792316 -0.792304 -0.792298 -0.792296 -0.792299 
200 -0.826611 -0.826563 -0.82652 -0.826481 -0.826446 -0.826414 -0.826386 -0.826359 -0.826335 -0.826312 
201 -0.899884 -0.899798 -0.899715 -0.899635 -0.899558 -0.899484 -0.899414 -0.899348 -0.899287 -0.899231 
202 -0.850834 -0.850837 -0.850838 -0.850838 -0.850837 -0.850833 -0.850828 -0.850822 -0.850813 -0.850803 
203 -0.869636 -0.86963 -0.869622 -0.869611 -0.869597 -0.869581 -0.869561 -0.869539 -0.869513 -0.869484 
204 -0.851979 -0.852035 -0.852091 -0.852148 -0.852206 -0.852264 -0.852323 -0.852383 -0.852443 -0.852503 
205 -0.891847 -0.891722 -0.891599 -0.891478 -0.89136 -0.891246 -0.891138 -0.891035 -0.89094 -0.890853 
206 -0.850834 -0.850837 -0.850838 -0.850838 -0.850837 -0.850833 -0.850828 -0.850822 -0.850813 -0.850803 
207 -0.76967 -0.769628 -0.769595 -0.76957 -0.769553 -0.769543 -0.769539 -0.769542 -0.769549 -0.769561 
208 -0.852548 -0.852482 -0.852419 -0.852358 -0.8523 -0.852243 -0.852188 -0.852134 -0.852081 -0.852028 
209 -0.887648 -0.887544 -0.88744 -0.887337 -0.887235 -0.887135 -0.887038 -0.886944 -0.886853 -0.886767 
210 -0.910289 -0.910231 -0.910176 -0.910124 -0.910074 -0.910026 -0.90998 -0.909935 -0.909892 -0.90985 
211 -0.850834 -0.850837 -0.850838 -0.850838 -0.850837 -0.850833 -0.850828 -0.850822 -0.850813 -0.850803 
212 -0.850834 -0.850837 -0.850838 -0.850838 -0.850837 -0.850833 -0.850828 -0.850822 -0.850813 -0.850803 
213 -0.845093 -0.84513 -0.845164 -0.845193 -0.845219 -0.84524 -0.845258 -0.845271 -0.84528 -0.845285 
214 -0.75741 -0.757354 -0.757304 -0.757261 -0.757225 -0.757197 -0.757174 -0.757158 -0.757148 -0.757144 
215 -0.786958 -0.786879 -0.786803 -0.78673 -0.786659 -0.786589 -0.786519 -0.786448 -0.786375 -0.7863 
216 -0.795313 -0.795245 -0.795179 -0.795112 -0.795045 -0.794977 -0.794906 -0.794832 -0.794755 -0.794675 
217 -0.855548 -0.85567 -0.85579 -0.855909 -0.856027 -0.856143 -0.856258 -0.856371 -0.856483 -0.856593 
218 -0.834844 -0.834735 -0.83463 -0.834526 -0.834422 -0.834319 -0.834214 -0.834108 -0.834 -0.83389 
219 -0.850903 -0.850904 -0.850903 -0.850901 -0.850897 -0.850892 -0.850884 -0.850876 -0.850865 -0.850852 
220 -0.943493 -0.943478 -0.943467 -0.943457 -0.943449 -0.943441 -0.943434 -0.943427 -0.943419 -0.94341 
221 -0.781898 -0.781808 -0.781722 -0.781639 -0.781559 -0.781479 -0.781401 -0.781323 -0.781245 -0.781166 
222 -0.725968 -0.72584 -0.725717 -0.725598 -0.725483 -0.72537 -0.725258 -0.725146 -0.725035 -0.724922 
223 -0.896301 -0.896257 -0.896215 -0.896173 -0.896131 -0.896088 -0.896043 -0.895996 -0.895945 -0.89589 
224 -0.916491 -0.916443 -0.916395 -0.916348 -0.916302 -0.916257 -0.916212 -0.916168 -0.916126 -0.916085 
225 -0.831189 -0.831266 -0.831339 -0.831409 -0.831474 -0.831534 -0.83159 -0.831641 -0.831687 -0.831728 
226 -0.79983 -0.799779 -0.799725 -0.799669 -0.799611 -0.799551 -0.799489 -0.799427 -0.799363 -0.799299 
227 -0.880373 -0.880262 -0.880158 -0.880058 -0.879963 -0.87987 -0.879779 -0.879689 -0.879599 -0.879509 
228 -0.820942 -0.820969 -0.820994 -0.821016 -0.821037 -0.821055 -0.82107 -0.821083 -0.821093 -0.8211 
229 -0.850834 -0.850837 -0.850838 -0.850838 -0.850837 -0.850833 -0.850828 -0.850822 -0.850813 -0.850803 
230 -0.850834 -0.850837 -0.850838 -0.850838 -0.850837 -0.850833 -0.850828 -0.850822 -0.850813 -0.850803 
231 -0.850834 -0.850837 -0.850838 -0.850838 -0.850837 -0.850833 -0.850828 -0.850822 -0.850813 -0.850803 
232 -1.08438 -1.08429 -1.08421 -1.08413 -1.08405 -1.08397 -1.0839 -1.08382 -1.08374 -1.08366 
233 -0.850831 -0.850834 -0.850835 -0.850835 -0.850834 -0.850831 -0.850826 -0.850819 -0.850811 -0.8508 
234 -0.977911 -0.97791 -0.97791 -0.977911 -0.977912 -0.977912 -0.97791 -0.977906 -0.977898 -0.977888 
235 -0.634077 -0.633925 -0.633784 -0.633652 -0.633526 -0.633405 -0.633287 -0.63317 -0.633053 -0.632932 
236 -0.907966 -0.907913 -0.907861 -0.907808 -0.907756 -0.907704 -0.907653 -0.907604 -0.907557 -0.907511 
237 -1.09999 -1.09989 -1.0998 -1.09972 -1.09964 -1.09957 -1.09949 -1.09942 -1.09935 -1.09928 
238 -0.851173 -0.851172 -0.85117 -0.851166 -0.851161 -0.851154 -0.851145 -0.851135 -0.851123 -0.851108 
239 -0.694746 -0.694617 -0.694498 -0.694386 -0.694279 -0.694177 -0.694076 -0.693974 -0.693871 -0.693763 
240 -0.758861 -0.758796 -0.758731 -0.758665 -0.758598 -0.758532 -0.758465 -0.758398 -0.758332 -0.758266 
241 -0.721282 -0.721168 -0.721058 -0.720951 -0.720848 -0.720748 -0.720651 -0.720556 -0.720463 -0.720371 
242 -0.850834 -0.850837 -0.850838 -0.850838 -0.850837 -0.850834 -0.850829 -0.850822 -0.850813 -0.850803 
243 -0.984896 -0.984923 -0.984951 -0.984978 -0.985004 -0.985027 -0.985048 -0.985065 -0.985078 -0.985087 
244 -1.1124 -1.11235 -1.1123 -1.11226 -1.11221 -1.11215 -1.11209 -1.11203 -1.11197 -1.1119 
245 -0.508227 -0.508062 -0.507907 -0.507761 -0.507624 -0.507495 -0.507372 -0.507256 -0.507144 -0.507036 
246 -1.04533 -1.04531 -1.04529 -1.04526 -1.04523 -1.0452 -1.04516 -1.04512 -1.04507 -1.04501 
247 -0.848462 -0.848282 -0.848096 -0.847905 -0.847708 -0.847506 -0.847299 -0.847087 -0.84687 -0.846648 
248 -0.850834 -0.850837 -0.850838 -0.850838 -0.850837 -0.850833 -0.850828 -0.850822 -0.850813 -0.850803 
249 -0.596911 -0.596771 -0.596638 -0.596512 -0.596392 -0.596277 -0.596166 -0.596058 -0.595954 -0.59585 
250 -0.812806 -0.812754 -0.812696 -0.812635 -0.812569 -0.8125 -0.81243 -0.812357 -0.812283 -0.812209 
251 -0.766367 -0.766258 -0.766144 -0.766027 -0.765909 -0.765789 -0.76567 -0.765551 -0.765436 -0.765324 
252 -0.73323 -0.733159 -0.733089 -0.733019 -0.732949 -0.732878 -0.732806 -0.732732 -0.732656 -0.732578 
253 -0.850834 -0.850837 -0.850838 -0.850838 -0.850837 -0.850833 -0.850828 -0.850822 -0.850813 -0.850803 
254 -0.881158 -0.881124 -0.881089 -0.881054 -0.881019 -0.880984 -0.880949 -0.880915 -0.880883 -0.880851 
255 -0.850833 -0.850836 -0.850837 -0.850836 -0.850834 -0.850831 -0.850825 -0.850818 -0.850809 -0.850799 
256 -0.858731 -0.858797 -0.85886 -0.858918 -0.858972 -0.859022 -0.859068 -0.859109 -0.859146 -0.859179 
257 -1.04476 -1.04476 -1.04476 -1.04476 -1.04475 -1.04474 -1.04472 -1.0447 -1.04467 -1.04463 
258 -0.823962 -0.824036 -0.824106 -0.824171 -0.824233 -0.824291 -0.824344 -0.824393 -0.824436 -0.824475 
259 -0.871709 -0.871714 -0.871715 -0.87171 -0.871701 -0.871686 -0.871666 -0.871639 -0.871607 -0.871568 
260 -0.620093 -0.619952 -0.619814 -0.61968 -0.619549 -0.619423 -0.619299 -0.61918 -0.619064 -0.618952 
261 -0.992576 -0.992615 -0.992652 -0.992686 -0.992716 -0.992742 -0.992764 -0.992779 -0.992789 -0.992793 
262 -1.02503 -1.02505 -1.02507 -1.02508 -1.02509 -1.0251 -1.0251 -1.02509 -1.02508 -1.02507 
263 -0.85083 -0.850833 -0.850835 -0.850835 -0.850833 -0.85083 -0.850825 -0.850819 -0.85081 -0.8508 
264 -0.836331 -0.836447 -0.836558 -0.836664 -0.836765 -0.83686 -0.83695 -0.837033 -0.83711 -0.837181 
265 -0.705947 -0.705861 -0.705774 -0.705686 -0.705598 -0.705509 -0.70542 -0.705329 -0.705238 -0.705145 
266 -0.664534 -0.66443 -0.664331 -0.664236 -0.664144 -0.664056 -0.663971 -0.663889 -0.663809 -0.663731 
267 -0.908723 -0.908735 -0.908746 -0.908757 -0.908769 -0.908781 -0.908794 -0.908807 -0.908822 -0.908837 
268 -0.844821 -0.844917 -0.845014 -0.845111 -0.845209 -0.845309 -0.84541 -0.845514 -0.845619 -0.845727 
269 -0.850834 -0.850837 -0.850838 -0.850838 -0.850837 -0.850833 -0.850828 -0.850822 -0.850813 -0.850803 
270 -1.0057 -1.00572 -1.00574 -1.00576 -1.00577 -1.00578 -1.00579 -1.00579 -1.00579 -1.00579 
271 -0.965575 -0.965609 -0.96564 -0.965668 -0.965693 -0.965713 -0.965729 -0.965741 -0.965748 -0.96575 
272 -0.686838 -0.686761 -0.686677 -0.686586 -0.686488 -0.686384 -0.686273 -0.686157 -0.686036 -0.68591 
273 -0.771761 -0.771703 -0.771634 -0.771554 -0.771464 -0.771365 -0.771257 -0.771142 -0.77102 -0.770893 
274 -0.73106 -0.730997 -0.730931 -0.730862 -0.73079 -0.730716 -0.73064 -0.730562 -0.730482 -0.730401 
275 -0.850037 -0.850056 -0.850074 -0.850091 -0.850107 -0.850121 -0.850134 -0.850146 -0.850156 -0.850164 
276 -0.977463 -0.977477 -0.977487 -0.977494 -0.977497 -0.977497 -0.977492 -0.977484 -0.977471 -0.977455 
277 -0.850834 -0.850837 -0.850838 -0.850838 -0.850837 -0.850833 -0.850828 -0.850822 -0.850813 -0.850803 
278 -0.711524 -0.71144 -0.711356 -0.71127 -0.711185 -0.711099 -0.711014 -0.710931 -0.710849 -0.710769 
279 -0.76228 -0.762199 -0.76211 -0.762014 -0.761912 -0.761804 -0.761691 -0.761575 -0.761455 -0.761334 
280 -0.936598 -0.936637 -0.936674 -0.936709 -0.936743 -0.936774 -0.936803 -0.93683 -0.936854 -0.936876 
281 -0.820379 -0.820438 -0.820491 -0.820536 -0.820572 -0.820598 -0.820613 -0.820617 -0.820609 -0.820588 
282 -0.939232 -0.939241 -0.939249 -0.939257 -0.939263 -0.939269 -0.939274 -0.939279 -0.939283 -0.939287 
283 -0.895308 -0.89534 -0.895369 -0.895396 -0.895421 -0.895444 -0.895465 -0.895485 -0.895502 -0.895518 
284 -0.796968 -0.79698 -0.796981 -0.796971 -0.796949 -0.796916 -0.79687 -0.796814 -0.796746 -0.796666 
285 -0.742824 -0.742913 -0.742993 -0.743062 -0.74312 -0.743163 -0.743192 -0.743206 -0.743203 -0.743184 
286 -0.850834 -0.850837 -0.850838 -0.850838 -0.850837 -0.850833 -0.850828 -0.850822 -0.850813 -0.850803 
287 -0.777812 -0.777845 -0.777874 -0.777898 -0.777918 -0.777931 -0.777939 -0.777941 -0.777936 -0.777924 