VARIABLES = "Cell" "Mode 0" "Mode 1" "Mode 2" "Mode 3" "Mode 4" "Mode 5" "Mode 6" "Mode 7" "Mode 8" "Mode 9" 
ZONE T = Iteration4
0 -0.859594 -0.859148 -0.85852 -0.857607 -0.855955 -0.852679 0 0 0 0 
1 -0.859594 -0.859148 -0.85852 -0.857607 -0.855955 -0.852679 0 0 0 0 
2 -0.859594 -0.859148 -0.85852 -0.857607 -0.855955 -0.852679 0 0 0 0 
3 -0.859594 -0.859148 -0.85852 -0.857607 -0.855955 -0.852679 0 0 0 0 
4 -0.859594 -0.859148 -0.85852 -0.857607 -0.855955 -0.852679 0 0 0 0 
5 -0.859594 -0.859148 -0.85852 -0.857607 -0.855955 -0.852679 0 0 0 0 
6 -0.859594 -0.859148 -0.85852 -0.857607 -0.855955 -0.852679 0 0 0 0 
7 -0.859594 -0.859148 -0.85852 -0.857607 -0.855955 -0.852679 0 0 0 0 
8 -0.859594 -0.859148 -0.85852 -0.857607 -0.855955 -0.852679 0 0 0 0 
9 -0.859594 -0.859148 -0.85852 -0.857607 -0.855955 -0.852679 0 0 0 0 
10 -0.859594 -0.859148 -0.85852 -0.857607 -0.855955 -0.852679 0 0 0 0 
11 -0.859594 -0.859148 -0.85852 -0.857607 -0.855955 -0.852679 0 0 0 0 
12 -0.859594 -0.859148 -0.85852 -0.857607 -0.855955 -0.852679 0 0 0 0 
13 -0.859594 -0.859148 -0.85852 -0.857607 -0.855955 -0.852679 0 0 0 0 
14 -0.859594 -0.859148 -0.85852 -0.857607 -0.855955 -0.852679 0 0 0 0 
15 -0.859594 -0.859148 -0.85852 -0.857607 -0.855955 -0.852679 0 0 0 0 
16 -0.859594 -0.859148 -0.85852 -0.857607 -0.855955 -0.852679 0 0 0 0 
17 -0.859594 -0.859148 -0.85852 -0.857607 -0.855955 -0.852679 0 0 0 0 
18 -0.859594 -0.859148 -0.85852 -0.857607 -0.855955 -0.852679 0 0 0 0 
19 -0.859594 -0.859148 -0.85852 -0.857607 -0.855955 -0.852679 0 0 0 0 
20 -0.859594 -0.859148 -0.85852 -0.857607 -0.855955 -0.852679 0 0 0 0 
21 -0.859594 -0.859148 -0.85852 -0.857607 -0.855955 -0.852679 0 0 0 0 
22 -0.859594 -0.859148 -0.85852 -0.857607 -0.855955 -0.852679 0 0 0 0 
23 -0.859594 -0.859148 -0.85852 -0.857607 -0.855955 -0.852679 0 0 0 0 
24 -0.859594 -0.859148 -0.85852 -0.857607 -0.855955 -0.852679 0 0 0 0 
25 -0.859594 -0.859148 -0.85852 -0.857607 -0.855955 -0.852679 0 0 0 0 
26 -0.859594 -0.859148 -0.85852 -0.857607 -0.855955 -0.852679 0 0 0 0 
27 -0.859594 -0.859148 -0.85852 -0.857607 -0.855955 -0.852679 0 0 0 0 
28 -0.859594 -0.859148 -0.85852 -0.857607 -0.855955 -0.852679 0 0 0 0 
29 -0.859594 -0.859148 -0.85852 -0.857607 -0.855955 -0.852679 0 0 0 0 
30 -0.859594 -0.859148 -0.85852 -0.857607 -0.855955 -0.852679 0 0 0 0 
31 -0.859594 -0.859148 -0.85852 -0.857607 -0.855955 -0.852679 0 0 0 0 
32 -0.859594 -0.859148 -0.85852 -0.857607 -0.855955 -0.852679 0 0 0 0 
33 -0.859594 -0.859148 -0.85852 -0.857607 -0.855955 -0.852679 0 0 0 0 
34 -0.859594 -0.859148 -0.85852 -0.857607 -0.855955 -0.852679 0 0 0 0 
35 -0.859594 -0.859148 -0.85852 -0.857607 -0.855955 -0.852679 0 0 0 0 
36 -0.859594 -0.859148 -0.85852 -0.857607 -0.855955 -0.852679 0 0 0 0 
37 -0.859594 -0.859148 -0.85852 -0.857607 -0.855955 -0.852679 0 0 0 0 
38 -0.859594 -0.859148 -0.85852 -0.857607 -0.855955 -0.852679 0 0 0 0 
39 -0.859594 -0.859148 -0.85852 -0.857607 -0.855955 -0.852679 0 0 0 0 
40 -0.859594 -0.859148 -0.85852 -0.857607 -0.855955 -0.852679 0 0 0 0 
41 -0.859594 -0.859148 -0.85852 -0.857607 -0.855955 -0.852679 0 0 0 0 
42 -0.859594 -0.859148 -0.85852 -0.857607 -0.855955 -0.852679 0 0 0 0 
43 -0.859594 -0.859148 -0.85852 -0.857607 -0.855955 -0.852679 0 0 0 0 
44 -0.859594 -0.859148 -0.85852 -0.857607 -0.855955 -0.852679 0 0 0 0 
45 -0.859594 -0.859148 -0.85852 -0.857607 -0.855955 -0.852679 0 0 0 0 
46 -0.859594 -0.859148 -0.85852 -0.857607 -0.855955 -0.852679 0 0 0 0 
47 -0.859594 -0.859148 -0.85852 -0.857607 -0.855955 -0.852679 0 0 0 0 
48 -0.859594 -0.859148 -0.85852 -0.857607 -0.855955 -0.852679 0 0 0 0 
49 -0.859594 -0.859148 -0.85852 -0.857607 -0.855955 -0.852679 0 0 0 0 
50 -0.859594 -0.859148 -0.85852 -0.857607 -0.855955 -0.852679 0 0 0 0 
51 -0.859594 -0.859148 -0.85852 -0.857607 -0.855955 -0.852679 0 0 0 0 
52 -0.859594 -0.859148 -0.85852 -0.857607 -0.855955 -0.852679 0 0 0 0 
53 -0.859594 -0.859148 -0.85852 -0.857607 -0.855955 -0.852679 0 0 0 0 
54 -0.859594 -0.859148 -0.85852 -0.857607 -0.855955 -0.852679 0 0 0 0 
55 -0.859594 -0.859148 -0.85852 -0.857607 -0.855955 -0.852679 0 0 0 0 
56 -0.859594 -0.859148 -0.85852 -0.857607 -0.855955 -0.852679 0 0 0 0 
57 -0.859594 -0.859148 -0.85852 -0.857607 -0.855955 -0.852679 0 0 0 0 
58 -0.859594 -0.859148 -0.85852 -0.857607 -0.855955 -0.852679 0 0 0 0 
59 -0.859594 -0.859148 -0.85852 -0.857607 -0.855955 -0.852679 0 0 0 0 
60 -0.859594 -0.859148 -0.85852 -0.857607 -0.855955 -0.852679 0 0 0 0 
61 -0.859594 -0.859148 -0.85852 -0.857607 -0.855955 -0.852679 0 0 0 0 
62 -0.859594 -0.859148 -0.85852 -0.857607 -0.855955 -0.852679 0 0 0 0 
63 -0.859594 -0.859148 -0.85852 -0.857607 -0.855955 -0.852679 0 0 0 0 
64 -0.859594 -0.859148 -0.85852 -0.857607 -0.855955 -0.852679 0 0 0 0 
65 -0.859594 -0.859148 -0.85852 -0.857607 -0.855955 -0.852679 0 0 0 0 
66 -0.859594 -0.859148 -0.85852 -0.857607 -0.855955 -0.852679 0 0 0 0 
67 -0.859594 -0.859148 -0.85852 -0.857607 -0.855955 -0.852679 0 0 0 0 
68 -0.859594 -0.859148 -0.85852 -0.857607 -0.855955 -0.852679 0 0 0 0 
69 -0.859594 -0.859148 -0.85852 -0.857607 -0.855955 -0.852679 0 0 0 0 
70 -0.859594 -0.859148 -0.85852 -0.857607 -0.855955 -0.852679 0 0 0 0 
71 -0.859594 -0.859148 -0.85852 -0.857607 -0.855955 -0.852679 0 0 0 0 
72 -0.859594 -0.859148 -0.85852 -0.857607 -0.855955 -0.852679 0 0 0 0 
73 -0.859594 -0.859148 -0.85852 -0.857607 -0.855955 -0.852679 0 0 0 0 
74 -0.859594 -0.859148 -0.85852 -0.857607 -0.855955 -0.852679 0 0 0 0 
75 -0.859594 -0.859148 -0.85852 -0.857607 -0.855955 -0.852679 0 0 0 0 
76 -0.859594 -0.859148 -0.85852 -0.857607 -0.855955 -0.852679 0 0 0 0 
77 -0.859594 -0.859148 -0.85852 -0.857607 -0.855955 -0.852679 0 0 0 0 
78 -0.859594 -0.859148 -0.85852 -0.857607 -0.855955 -0.852679 0 0 0 0 
79 -0.859594 -0.859148 -0.85852 -0.857607 -0.855955 -0.852679 0 0 0 0 
80 -0.859594 -0.859148 -0.85852 -0.857607 -0.855955 -0.852679 0 0 0 0 
81 -0.859594 -0.859148 -0.85852 -0.857607 -0.855955 -0.852679 0 0 0 0 
82 -0.859594 -0.859148 -0.85852 -0.857607 -0.855955 -0.852679 0 0 0 0 
83 -0.859594 -0.859148 -0.85852 -0.857607 -0.855955 -0.852679 0 0 0 0 
84 -0.859594 -0.859148 -0.85852 -0.857607 -0.855955 -0.852679 0 0 0 0 
85 -0.859594 -0.859148 -0.85852 -0.857607 -0.855955 -0.852679 0 0 0 0 
86 -0.859594 -0.859148 -0.85852 -0.857607 -0.855955 -0.852679 0 0 0 0 
87 -0.859594 -0.859148 -0.85852 -0.857607 -0.855955 -0.852679 0 0 0 0 
88 -0.859594 -0.859148 -0.85852 -0.857607 -0.855955 -0.852679 0 0 0 0 
89 -0.859594 -0.859148 -0.85852 -0.857607 -0.855955 -0.852679 0 0 0 0 
90 -0.859594 -0.859148 -0.85852 -0.857607 -0.855955 -0.852679 0 0 0 0 
91 -0.859594 -0.859148 -0.85852 -0.857607 -0.855955 -0.852679 0 0 0 0 
92 -0.859594 -0.859148 -0.85852 -0.857607 -0.855955 -0.852679 0 0 0 0 
93 -0.859594 -0.859148 -0.85852 -0.857607 -0.855955 -0.852679 0 0 0 0 
94 -0.859594 -0.859148 -0.85852 -0.857607 -0.855955 -0.852679 0 0 0 0 
95 -0.859594 -0.859148 -0.85852 -0.857607 -0.855955 -0.852679 0 0 0 0 
96 -0.859594 -0.859148 -0.85852 -0.857607 -0.855955 -0.852679 0 0 0 0 
97 -0.859594 -0.859148 -0.85852 -0.857607 -0.855955 -0.852679 0 0 0 0 
98 -0.859594 -0.859148 -0.85852 -0.857607 -0.855955 -0.852679 0 0 0 0 
99 -0.859594 -0.859148 -0.85852 -0.857607 -0.855955 -0.852679 0 0 0 0 
100 -0.859594 -0.859148 -0.85852 -0.857607 -0.855955 -0.852679 0 0 0 0 
101 -0.859594 -0.859148 -0.85852 -0.857607 -0.855955 -0.852679 0 0 0 0 
102 -0.859594 -0.859148 -0.85852 -0.857607 -0.855955 -0.852679 0 0 0 0 
103 -0.859594 -0.859148 -0.85852 -0.857607 -0.855955 -0.852679 0 0 0 0 
104 -0.859594 -0.859148 -0.85852 -0.857607 -0.855955 -0.852679 0 0 0 0 
105 -0.859594 -0.859148 -0.85852 -0.857607 -0.855955 -0.852679 0 0 0 0 
106 -0.859594 -0.859148 -0.85852 -0.857607 -0.855955 -0.852679 0 0 0 0 
107 -0.859594 -0.859148 -0.85852 -0.857607 -0.855955 -0.852679 0 0 0 0 
108 -0.859594 -0.859148 -0.85852 -0.857607 -0.855955 -0.852679 0 0 0 0 
109 -0.859594 -0.859148 -0.85852 -0.857607 -0.855955 -0.852679 0 0 0 0 
110 -0.859594 -0.859148 -0.85852 -0.857607 -0.855955 -0.852679 0 0 0 0 
111 -0.859594 -0.859148 -0.85852 -0.857607 -0.855955 -0.852679 0 0 0 0 
112 -0.859594 -0.859148 -0.85852 -0.857607 -0.855955 -0.852679 0 0 0 0 
113 -0.859594 -0.859148 -0.85852 -0.857607 -0.855955 -0.852679 0 0 0 0 
114 -0.859594 -0.859148 -0.85852 -0.857607 -0.855955 -0.852679 0 0 0 0 
115 -0.859594 -0.859148 -0.85852 -0.857607 -0.855955 -0.852679 0 0 0 0 
116 -0.859594 -0.859148 -0.85852 -0.857607 -0.855955 -0.852679 0 0 0 0 
117 -0.859594 -0.859148 -0.85852 -0.857607 -0.855955 -0.852679 0 0 0 0 
118 -0.859594 -0.859148 -0.85852 -0.857607 -0.855955 -0.852679 0 0 0 0 
119 -0.859594 -0.859148 -0.85852 -0.857607 -0.855955 -0.852679 0 0 0 0 
120 -0.859594 -0.859148 -0.85852 -0.857607 -0.855955 -0.852679 0 0 0 0 
121 -0.859594 -0.859148 -0.85852 -0.857607 -0.855955 -0.852679 0 0 0 0 
122 -0.859594 -0.859148 -0.85852 -0.857607 -0.855955 -0.852679 0 0 0 0 
123 -0.859594 -0.859148 -0.85852 -0.857607 -0.855955 -0.852679 0 0 0 0 
124 -0.859594 -0.859148 -0.85852 -0.857607 -0.855955 -0.852679 0 0 0 0 
125 -0.859594 -0.859148 -0.85852 -0.857607 -0.855955 -0.852679 0 0 0 0 
126 -0.859594 -0.859148 -0.85852 -0.857607 -0.855955 -0.852679 0 0 0 0 
127 -0.859594 -0.859148 -0.85852 -0.857607 -0.855955 -0.852679 0 0 0 0 
128 -0.859594 -0.859148 -0.85852 -0.857607 -0.855955 -0.852679 0 0 0 0 
129 -0.859594 -0.859148 -0.85852 -0.857607 -0.855955 -0.852679 0 0 0 0 
130 -0.859594 -0.859148 -0.85852 -0.857607 -0.855955 -0.852679 0 0 0 0 
131 -0.859594 -0.859148 -0.85852 -0.857607 -0.855955 -0.852679 0 0 0 0 
132 -0.859594 -0.859148 -0.85852 -0.857607 -0.855955 -0.852679 0 0 0 0 
133 -0.859594 -0.859148 -0.85852 -0.857607 -0.855955 -0.852679 0 0 0 0 
134 -0.859594 -0.859148 -0.85852 -0.857607 -0.855955 -0.852679 0 0 0 0 
135 -0.859594 -0.859148 -0.85852 -0.857607 -0.855955 -0.852679 0 0 0 0 
136 -0.859594 -0.859148 -0.85852 -0.857607 -0.855955 -0.852679 0 0 0 0 
137 -0.859594 -0.859148 -0.85852 -0.857607 -0.855955 -0.852679 0 0 0 0 
138 -0.859594 -0.859148 -0.85852 -0.857607 -0.855955 -0.852679 0 0 0 0 
139 -0.859594 -0.859148 -0.85852 -0.857607 -0.855955 -0.852679 0 0 0 0 
140 -0.859594 -0.859148 -0.85852 -0.857607 -0.855955 -0.852679 0 0 0 0 
141 -0.859594 -0.859148 -0.85852 -0.857607 -0.855955 -0.852679 0 0 0 0 
142 -0.859594 -0.859148 -0.85852 -0.857607 -0.855955 -0.852679 0 0 0 0 
143 -0.859594 -0.859148 -0.85852 -0.857607 -0.855955 -0.852679 0 0 0 0 
144 -0.859594 -0.859148 -0.85852 -0.857607 -0.855955 -0.852679 0 0 0 0 
145 -0.859594 -0.859148 -0.85852 -0.857607 -0.855955 -0.852679 0 0 0 0 
146 -0.859594 -0.859148 -0.85852 -0.857607 -0.855955 -0.852679 0 0 0 0 
147 -0.859594 -0.859148 -0.85852 -0.857607 -0.855955 -0.852679 0 0 0 0 
148 -0.859594 -0.859148 -0.85852 -0.857607 -0.855955 -0.852679 0 0 0 0 
149 -0.859594 -0.859148 -0.85852 -0.857607 -0.855955 -0.852679 0 0 0 0 
150 -0.859594 -0.859148 -0.85852 -0.857607 -0.855955 -0.852679 0 0 0 0 
151 -0.859594 -0.859148 -0.85852 -0.857607 -0.855955 -0.852679 0 0 0 0 
152 -0.859594 -0.859148 -0.85852 -0.857607 -0.855955 -0.852679 0 0 0 0 
153 -0.859594 -0.859148 -0.85852 -0.857607 -0.855955 -0.852679 0 0 0 0 
154 -0.859594 -0.859148 -0.85852 -0.857607 -0.855955 -0.852679 0 0 0 0 
155 -0.859594 -0.859148 -0.85852 -0.857607 -0.855955 -0.852679 0 0 0 0 
156 -0.859594 -0.859148 -0.85852 -0.857607 -0.855955 -0.852679 0 0 0 0 
157 -0.859594 -0.859148 -0.85852 -0.857607 -0.855955 -0.852679 0 0 0 0 
158 -0.859594 -0.859148 -0.85852 -0.857607 -0.855955 -0.852679 0 0 0 0 
159 -0.859594 -0.859148 -0.85852 -0.857607 -0.855955 -0.852679 0 0 0 0 
160 -0.859594 -0.859148 -0.85852 -0.857607 -0.855955 -0.852679 0 0 0 0 
161 -0.859595 -0.859149 -0.85852 -0.857607 -0.855955 -0.852679 0 0 0 0 
162 -0.859594 -0.859148 -0.85852 -0.857607 -0.855955 -0.852679 0 0 0 0 
163 -0.859593 -0.859148 -0.85852 -0.857607 -0.855955 -0.852679 0 0 0 0 
164 -0.859592 -0.859148 -0.85852 -0.857607 -0.855955 -0.852679 0 0 0 0 
165 -0.859594 -0.859148 -0.85852 -0.857607 -0.855955 -0.852679 0 0 0 0 
166 -0.859594 -0.859148 -0.85852 -0.857607 -0.855955 -0.852679 0 0 0 0 
167 -0.859593 -0.859148 -0.85852 -0.857607 -0.855955 -0.852679 0 0 0 0 
168 -0.859595 -0.859148 -0.85852 -0.857607 -0.855955 -0.852679 0 0 0 0 
169 -0.859594 -0.859148 -0.85852 -0.857607 -0.855955 -0.852679 0 0 0 0 
170 -0.859592 -0.859148 -0.85852 -0.857607 -0.855955 -0.852679 0 0 0 0 
171 -0.859594 -0.859148 -0.85852 -0.857607 -0.855955 -0.852679 0 0 0 0 
172 -0.859593 -0.859148 -0.85852 -0.857607 -0.855955 -0.852679 0 0 0 0 
173 -0.859594 -0.859148 -0.85852 -0.857607 -0.855955 -0.852679 0 0 0 0 
174 -0.859633 -0.85916 -0.858521 -0.857607 -0.855955 -0.852679 0 0 0 0 
175 -0.859583 -0.859143 -0.858519 -0.857607 -0.855955 -0.852679 0 0 0 0 
176 -0.859547 -0.859126 -0.858518 -0.857609 -0.855956 -0.852679 0 0 0 0 
177 -0.859601 -0.859153 -0.858522 -0.857608 -0.855955 -0.852679 0 0 0 0 
178 -0.859596 -0.859147 -0.858519 -0.857607 -0.855955 -0.852679 0 0 0 0 
179 -0.859594 -0.859148 -0.85852 -0.857607 -0.855955 -0.852679 0 0 0 0 
180 -0.859857 -0.859213 -0.858525 -0.857605 -0.855954 -0.852679 0 0 0 0 
181 -0.859594 -0.859148 -0.85852 -0.857607 -0.855955 -0.852679 0 0 0 0 
182 -0.859531 -0.859115 -0.858509 -0.857605 -0.855955 -0.852679 0 0 0 0 
183 -0.859618 -0.859141 -0.858511 -0.857604 -0.855955 -0.852679 0 0 0 0 
184 -0.859594 -0.859148 -0.85852 -0.857607 -0.855955 -0.852679 0 0 0 0 
185 -0.859599 -0.859148 -0.858519 -0.857607 -0.855955 -0.852679 0 0 0 0 
186 -0.859829 -0.859268 -0.85855 -0.857609 -0.855955 -0.852679 0 0 0 0 
187 -0.859599 -0.859175 -0.858535 -0.857611 -0.855956 -0.852679 0 0 0 0 
188 -0.857743 -0.858477 -0.858418 -0.857622 -0.855961 -0.852679 0 0 0 0 
189 -0.859989 -0.859382 -0.858585 -0.857612 -0.855954 -0.852679 0 0 0 0 
190 -0.859594 -0.859148 -0.85852 -0.857607 -0.855955 -0.852679 0 0 0 0 
191 -0.859594 -0.859148 -0.85852 -0.857607 -0.855955 -0.852679 0 0 0 0 
192 -0.864832 -0.861092 -0.858463 -0.857259 -0.855855 -0.852679 0 0 0 0 
193 -0.859594 -0.859148 -0.85852 -0.857607 -0.855955 -0.852679 0 0 0 0 
194 -0.859593 -0.859148 -0.85852 -0.857607 -0.855955 -0.852679 0 0 0 0 
195 -0.850821 -0.855927 -0.857806 -0.857564 -0.855965 -0.852679 0 0 0 0 
196 -0.859594 -0.859148 -0.85852 -0.857607 -0.855955 -0.852679 0 0 0 0 
197 -0.859594 -0.859148 -0.85852 -0.857607 -0.855955 -0.852679 0 0 0 0 
198 -0.859594 -0.859148 -0.85852 -0.857607 -0.855955 -0.852679 0 0 0 0 
199 -0.859897 -0.858803 -0.858231 -0.857506 -0.85594 -0.852679 0 0 0 0 
200 -0.861903 -0.858216 -0.857091 -0.857016 -0.855875 -0.852679 0 0 0 0 
201 -0.856818 -0.85724 -0.858112 -0.857706 -0.856004 -0.852679 0 0 0 0 
202 -0.859594 -0.859148 -0.85852 -0.857607 -0.855955 -0.852679 0 0 0 0 
203 -0.859594 -0.859148 -0.85852 -0.857607 -0.855955 -0.852679 0 0 0 0 
204 -0.859594 -0.859148 -0.85852 -0.857607 -0.855955 -0.852679 0 0 0 0 
205 -0.859252 -0.859153 -0.858582 -0.857636 -0.85596 -0.852679 0 0 0 0 
206 -0.859594 -0.859148 -0.85852 -0.857607 -0.855955 -0.852679 0 0 0 0 
207 -0.863837 -0.863652 -0.860684 -0.858115 -0.855992 -0.852679 0 0 0 0 
208 -0.8861 -0.869372 -0.859622 -0.856798 -0.855683 -0.852679 0 0 0 0 
209 -0.859598 -0.85918 -0.858537 -0.857612 -0.855956 -0.852679 0 0 0 0 
210 -0.852232 -0.852846 -0.856817 -0.85793 -0.856179 -0.852679 0 0 0 0 
211 -0.859594 -0.859148 -0.85852 -0.857607 -0.855955 -0.852679 0 0 0 0 
212 -0.859594 -0.859148 -0.85852 -0.857607 -0.855955 -0.852679 0 0 0 0 
213 -0.859594 -0.859148 -0.85852 -0.857607 -0.855955 -0.852679 0 0 0 0 
214 -0.862844 -0.860098 -0.858481 -0.857482 -0.855924 -0.852679 0 0 0 0 
215 -0.763033 -0.811106 -0.851408 -0.863467 -0.858701 -0.852679 0 0 0 0 
216 -0.896011 -0.895834 -0.876505 -0.858575 -0.854408 -0.852679 0 0 0 0 
217 -0.859594 -0.859148 -0.85852 -0.857607 -0.855955 -0.852679 0 0 0 0 
218 -0.920372 -0.907099 -0.873734 -0.856422 -0.855826 -0.852679 0 0 0 0 
219 -0.859594 -0.859148 -0.85852 -0.857607 -0.855955 -0.852679 0 0 0 0 
220 -0.967929 -0.917492 -0.871954 -0.853638 -0.853294 -0.852679 0 0 0 0 
221 -0.85439 -0.869217 -0.868127 -0.861517 -0.85661 -0.852679 0 0 0 0 
222 -0.689724 -0.725645 -0.805611 -0.858092 -0.859752 -0.852679 0 0 0 0 
223 -0.980563 -0.946494 -0.88521 -0.850592 -0.84994 -0.852679 0 0 0 0 
224 -0.851816 -0.851055 -0.853574 -0.855817 -0.85567 -0.852679 0 0 0 0 
225 -0.859595 -0.859149 -0.85852 -0.857607 -0.855955 -0.852679 0 0 0 0 
226 -0.860737 -0.859547 -0.858579 -0.857597 -0.855951 -0.852679 0 0 0 0 
227 -0.900448 -0.872567 -0.874008 -0.902075 -0.882584 -0.852679 0 0 0 0 
228 -0.859486 -0.859101 -0.858506 -0.857605 -0.855955 -0.852679 0 0 0 0 
229 -0.859594 -0.859148 -0.85852 -0.857607 -0.855955 -0.852679 0 0 0 0 
230 -0.859594 -0.859148 -0.85852 -0.857607 -0.855955 -0.852679 0 0 0 0 
231 -0.859594 -0.859148 -0.85852 -0.857607 -0.855955 -0.852679 0 0 0 0 
232 -1.02878 -1.09444 -1.14788 -1.10761 -0.952238 -0.852679 0 0 0 0 
233 -0.859594 -0.859148 -0.85852 -0.857607 -0.855955 -0.852679 0 0 0 0 
234 -0.981895 -0.929941 -0.887448 -0.865148 -0.856433 -0.852679 0 0 0 0 
235 -0.631514 -0.615335 -0.572102 -0.573876 -0.735911 -0.852679 0 0 0 0 
236 -0.854158 -0.856254 -0.857569 -0.857463 -0.855957 -0.852679 0 0 0 0 
237 -1.01626 -1.11267 -1.1808 -1.10046 -0.933769 -0.852679 0 0 0 0 
238 -0.859594 -0.859148 -0.85852 -0.857607 -0.855955 -0.852679 0 0 0 0 
239 -0.678424 -0.616742 -0.603098 -0.66398 -0.785606 -0.852679 0 0 0 0 
240 -0.857774 -0.868428 -0.867098 -0.861273 -0.856587 -0.852679 0 0 0 0 
241 -0.711324 -0.748374 -0.801734 -0.840725 -0.854373 -0.852679 0 0 0 0 
242 -0.859594 -0.859148 -0.85852 -0.857607 -0.855955 -0.852679 0 0 0 0 
243 -0.92336 -0.875534 -0.852605 -0.849967 -0.853595 -0.852679 0 0 0 0 
244 -1.14449 -1.29973 -1.36158 -1.20713 -0.962022 -0.852679 0 0 0 0 
245 -0.551136 -0.374489 -0.266479 -0.436778 -0.729765 -0.852679 0 0 0 0 
246 -1.13409 -1.19979 -1.16915 -1.04866 -0.914325 -0.852679 0 0 0 0 
247 -0.859594 -0.859148 -0.85852 -0.857607 -0.855955 -0.852679 0 0 0 0 
248 -0.859594 -0.859148 -0.85852 -0.857607 -0.855955 -0.852679 0 0 0 0 
249 -0.574854 -0.517346 -0.559597 -0.687905 -0.807957 -0.852679 0 0 0 0 
250 -0.859341 -0.858902 -0.858405 -0.857578 -0.855952 -0.852679 0 0 0 0 
251 -0.865551 -0.864456 -0.861168 -0.858351 -0.856045 -0.852679 0 0 0 0 
252 -0.768357 -0.825074 -0.857523 -0.863793 -0.858196 -0.852679 0 0 0 0 
253 -0.859594 -0.859148 -0.85852 -0.857607 -0.855955 -0.852679 0 0 0 0 
254 -0.859636 -0.859221 -0.858562 -0.85762 -0.855957 -0.852679 0 0 0 0 
255 -0.859594 -0.859148 -0.85852 -0.857607 -0.855955 -0.852679 0 0 0 0 
256 -0.859594 -0.859148 -0.85852 -0.857607 -0.855955 -0.852679 0 0 0 0 
257 -1.21443 -1.26675 -1.20059 -1.04848 -0.909189 -0.852679 0 0 0 0 
258 -0.859582 -0.859148 -0.858521 -0.857608 -0.855955 -0.852679 0 0 0 0 
259 -0.859639 -0.859171 -0.858528 -0.857609 -0.855955 -0.852679 0 0 0 0 
260 -0.565413 -0.534702 -0.587551 -0.699 -0.808671 -0.852679 0 0 0 0 
261 -1.01551 -0.956524 -0.901803 -0.868666 -0.856581 -0.852679 0 0 0 0 
262 -1.13923 -1.11482 -1.03801 -0.948498 -0.880735 -0.852679 0 0 0 0 
263 -0.859594 -0.859148 -0.85852 -0.857607 -0.855955 -0.852679 0 0 0 0 
264 -0.859594 -0.859148 -0.85852 -0.857607 -0.855955 -0.852679 0 0 0 0 
265 -0.675001 -0.732504 -0.797256 -0.840583 -0.854864 -0.852679 0 0 0 0 
266 -0.613861 -0.620436 -0.679823 -0.759904 -0.827423 -0.852679 0 0 0 0 
267 -0.854228 -0.853883 -0.855508 -0.856587 -0.8558 -0.852679 0 0 0 0 
268 -0.859594 -0.859148 -0.85852 -0.857607 -0.855955 -0.852679 0 0 0 0 
269 -0.859594 -0.859148 -0.85852 -0.857607 -0.855955 -0.852679 0 0 0 0 
270 -1.08731 -1.09988 -1.06955 -0.992305 -0.8987 -0.852679 0 0 0 0 
271 -0.959799 -0.910997 -0.877286 -0.860825 -0.855639 -0.852679 0 0 0 0 
272 -0.658353 -0.620025 -0.623977 -0.696225 -0.802969 -0.852679 0 0 0 0 
273 -0.856934 -0.860336 -0.85988 -0.858157 -0.856043 -0.852679 0 0 0 0 
274 -0.709846 -0.769777 -0.823092 -0.851709 -0.856876 -0.852679 0 0 0 0 
275 -0.859594 -0.859148 -0.85852 -0.857607 -0.855955 -0.852679 0 0 0 0 
276 -1.0455 -1.01915 -0.972074 -0.917302 -0.87249 -0.852679 0 0 0 0 
277 -0.859594 -0.859148 -0.85852 -0.857607 -0.855955 -0.852679 0 0 0 0 
278 -0.665277 -0.672762 -0.717148 -0.781922 -0.835153 -0.852679 0 0 0 0 
279 -0.805365 -0.839667 -0.856377 -0.859429 -0.856676 -0.852679 0 0 0 0 
280 -0.879139 -0.858343 -0.851672 -0.852993 -0.854784 -0.852679 0 0 0 0 
281 -0.860284 -0.859183 -0.858435 -0.857566 -0.855948 -0.852679 0 0 0 0 
282 -1.01502 -1.01446 -0.982614 -0.9296 -0.877484 -0.852679 0 0 0 0 
283 -0.857603 -0.858178 -0.858209 -0.857554 -0.855953 -0.852679 0 0 0 0 
284 -0.862737 -0.860432 -0.858786 -0.857594 -0.855941 -0.852679 0 0 0 0 
285 -0.731436 -0.710005 -0.720794 -0.767879 -0.827144 -0.852679 0 0 0 0 
286 -0.859594 -0.859148 -0.85852 -0.857607 -0.855955 -0.852679 0 0 0 0 
287 -0.803167 -0.826159 -0.843784 -0.853579 -0.85562 -0.852679 0 0 0 0 
288 -0.966566 -0.941891 -0.910422 -0.881421 -0.861784 -0.852679 0 0 0 0 
289 -0.859559 -0.859138 -0.858519 -0.857607 -0.855955 -0.852679 0 0 0 0 
290 -0.910565 -0.886144 -0.867977 -0.858549 -0.85544 -0.852679 0 0 0 0 
291 -0.745607 -0.760486 -0.790479 -0.823866 -0.847161 -0.852679 0 0 0 0 
292 -0.948202 -0.945642 -0.928394 -0.898964 -0.868452 -0.852679 0 0 0 0 
293 -0.840252 -0.852375 -0.858015 -0.85864 -0.856414 -0.852679 0 0 0 0 
294 -0.861397 -0.861838 -0.860443 -0.858427 -0.856118 -0.852679 0 0 0 0 
295 -0.859516 -0.859078 -0.858492 -0.857601 -0.855955 -0.852679 0 0 0 0 
296 -0.76985 -0.781312 -0.801095 -0.825152 -0.846219 -0.852679 0 0 0 0 
297 -0.859594 -0.859148 -0.85852 -0.857607 -0.855955 -0.852679 0 0 0 0 
298 -0.894089 -0.876722 -0.864551 -0.85828 -0.855682 -0.852679 0 0 0 0 
299 -0.859591 -0.859148 -0.85852 -0.857607 -0.855955 -0.852679 0 0 0 0 
300 -0.859594 -0.859148 -0.85852 -0.857607 -0.855955 -0.852679 0 0 0 0 
301 -0.859596 -0.859147 -0.858519 -0.857607 -0.855955 -0.852679 0 0 0 0 
302 -0.924811 -0.910616 -0.892361 -0.874232 -0.860324 -0.852679 0 0 0 0 
303 -0.801771 -0.816427 -0.831699 -0.844709 -0.852574 -0.852679 0 0 0 0 
304 -0.859593 -0.859148 -0.85852 -0.857607 -0.855955 -0.852679 0 0 0 0 
305 -0.866585 -0.861268 -0.858572 -0.857316 -0.855858 -0.852679 0 0 0 0 
306 -0.859477 -0.858802 -0.858296 -0.857533 -0.855945 -0.852679 0 0 0 0 
307 -0.900559 -0.898437 -0.890188 -0.876704 -0.861899 -0.852679 0 0 0 0 
308 -0.818571 -0.830416 -0.841422 -0.849687 -0.853896 -0.852679 0 0 0 0 
309 -0.859594 -0.859148 -0.85852 -0.857607 -0.855955 -0.852679 0 0 0 0 
310 -0.860592 -0.859791 -0.85881 -0.857691 -0.855967 -0.852679 0 0 0 0 
311 -0.882349 -0.876656 -0.869785 -0.863027 -0.857351 -0.852679 0 0 0 0 
312 -0.859713 -0.859109 -0.858468 -0.857584 -0.855951 -0.852679 0 0 0 0 
313 -0.870639 -0.865853 -0.861703 -0.858595 -0.856086 -0.852679 0 0 0 0 
314 -0.850425 -0.853225 -0.855251 -0.85622 -0.855627 -0.852679 0 0 0 0 
315 -0.859594 -0.859148 -0.85852 -0.857607 -0.855955 -0.852679 0 0 0 0 
316 -0.86213 -0.861318 -0.860283 -0.858802 -0.85638 -0.852679 0 0 0 0 
317 -0.859595 -0.859149 -0.858521 -0.857607 -0.855955 -0.852679 0 0 0 0 
318 -0.857742 -0.858515 -0.858446 -0.857678 -0.855991 -0.852679 0 0 0 0 
319 -0.860693 -0.859388 -0.85845 -0.857545 -0.855947 -0.852679 0 0 0 0 
320 -0.859209 -0.859044 -0.858521 -0.857619 -0.855958 -0.852679 0 0 0 0 
321 -0.834949 -0.839312 -0.845533 -0.85128 -0.854297 -0.852679 0 0 0 0 
322 -0.858874 -0.857827 -0.857158 -0.856687 -0.855654 -0.852679 0 0 0 0 
323 -0.859575 -0.859128 -0.85851 -0.857605 -0.855955 -0.852679 0 0 0 0 
324 -0.838324 -0.840542 -0.844778 -0.849955 -0.853712 -0.852679 0 0 0 0 
325 -0.877703 -0.873869 -0.868747 -0.863026 -0.857489 -0.852679 0 0 0 0 
326 -0.859047 -0.858881 -0.858451 -0.857614 -0.855962 -0.852679 0 0 0 0 
327 -0.859593 -0.859166 -0.858531 -0.85761 -0.855955 -0.852679 0 0 0 0 
328 -0.86107 -0.85982 -0.85866 -0.857537 -0.855906 -0.852679 0 0 0 0 
329 -0.842179 -0.845771 -0.849785 -0.85327 -0.854794 -0.852679 0 0 0 0 
330 -0.870725 -0.867363 -0.863681 -0.860082 -0.8566 -0.852679 0 0 0 0 
331 -0.859596 -0.859149 -0.85852 -0.857607 -0.855955 -0.852679 0 0 0 0 
332 -0.859594 -0.859148 -0.85852 -0.857607 -0.855955 -0.852679 0 0 0 0 
333 -0.85513 -0.85705 -0.857974 -0.857715 -0.856064 -0.852679 0 0 0 0 
334 -0.859594 -0.859148 -0.85852 -0.857607 -0.855955 -0.852679 0 0 0 0 
335 -0.859594 -0.859148 -0.85852 -0.857607 -0.855955 -0.852679 0 0 0 0 
336 -0.819816 -0.826166 -0.835262 -0.845125 -0.852384 -0.852679 0 0 0 0 
337 -0.859594 -0.859148 -0.85852 -0.857607 -0.855955 -0.852679 0 0 0 0 
338 -0.859345 -0.859016 -0.85847 -0.857596 -0.855954 -0.852679 0 0 0 0 
339 -0.888192 -0.880877 -0.872796 -0.864871 -0.857963 -0.852679 0 0 0 0 
340 -0.85901 -0.85857 -0.858132 -0.857439 -0.85592 -0.852679 0 0 0 0 
341 -0.853697 -0.856628 -0.858043 -0.857876 -0.856129 -0.852679 0 0 0 0 
342 -0.859594 -0.859148 -0.85852 -0.857607 -0.855955 -0.852679 0 0 0 0 
343 -0.834048 -0.840313 -0.846703 -0.851958 -0.854489 -0.852679 0 0 0 0 
344 -0.859594 -0.859148 -0.85852 -0.857607 -0.855955 -0.852679 0 0 0 0 
345 -0.878488 -0.872569 -0.866752 -0.861518 -0.856976 -0.852679 0 0 0 0 
346 -0.861929 -0.859716 -0.858216 -0.857171 -0.85578 -0.852679 0 0 0 0 
347 -0.859594 -0.859148 -0.85852 -0.857607 -0.855955 -0.852679 0 0 0 0 
348 -0.859992 -0.859384 -0.858618 -0.857632 -0.855958 -0.852679 0 0 0 0 
349 -0.808932 -0.818023 -0.82988 -0.842299 -0.85157 -0.852679 0 0 0 0 
350 -0.859594 -0.859148 -0.85852 -0.857607 -0.855955 -0.852679 0 0 0 0 
351 -0.85933 -0.859565 -0.858988 -0.857852 -0.856011 -0.852679 0 0 0 0 
352 -0.897823 -0.888163 -0.877563 -0.867285 -0.858628 -0.852679 0 0 0 0 
353 -0.859593 -0.859148 -0.85852 -0.857607 -0.855955 -0.852679 0 0 0 0 
354 -0.859568 -0.859145 -0.858523 -0.857609 -0.855955 -0.852679 0 0 0 0 
355 -0.859594 -0.859148 -0.85852 -0.857607 -0.855955 -0.852679 0 0 0 0 
356 -0.859594 -0.859148 -0.85852 -0.857607 -0.855955 -0.852679 0 0 0 0 
357 -0.859617 -0.859159 -0.858524 -0.857608 -0.855955 -0.852679 0 0 0 0 
358 -0.859594 -0.859148 -0.85852 -0.857607 -0.855955 -0.852679 0 0 0 0 
359 -0.861887 -0.859698 -0.858236 -0.857202 -0.855794 -0.852679 0 0 0 0 
360 -0.828671 -0.836796 -0.84468 -0.851033 -0.854251 -0.852679 0 0 0 0 
361 -0.859594 -0.859148 -0.85852 -0.857607 -0.855955 -0.852679 0 0 0 0 
362 -0.880638 -0.873735 -0.867228 -0.861625 -0.856977 -0.852679 0 0 0 0 
363 -0.852681 -0.856119 -0.857842 -0.85783 -0.856129 -0.852679 0 0 0 0 
364 -0.859594 -0.859148 -0.85852 -0.857607 -0.855955 -0.852679 0 0 0 0 
365 -0.80188 -0.813706 -0.827762 -0.841582 -0.851452 -0.852679 0 0 0 0 
366 -0.859594 -0.859148 -0.85852 -0.857607 -0.855955 -0.852679 0 0 0 0 
367 -0.90198 -0.890684 -0.878899 -0.867861 -0.858773 -0.852679 0 0 0 0 
368 -0.857736 -0.857665 -0.857631 -0.857248 -0.855883 -0.852679 0 0 0 0 
369 -0.859594 -0.859148 -0.85852 -0.857607 -0.855955 -0.852679 0 0 0 0 
370 -0.859667 -0.859162 -0.858516 -0.857604 -0.855954 -0.852679 0 0 0 0 
371 -0.853748 -0.857162 -0.858592 -0.858208 -0.856227 -0.852679 0 0 0 0 
372 -0.859044 -0.858871 -0.858416 -0.857583 -0.855953 -0.852679 0 0 0 0 
373 -0.859594 -0.859148 -0.85852 -0.857607 -0.855955 -0.852679 0 0 0 0 
374 -0.8261 -0.835351 -0.844037 -0.85084 -0.854224 -0.852679 0 0 0 0 
375 -0.859594 -0.859148 -0.85852 -0.857607 -0.855955 -0.852679 0 0 0 0 
376 -0.885813 -0.877538 -0.869675 -0.862853 -0.857313 -0.852679 0 0 0 0 
377 -0.859593 -0.859148 -0.85852 -0.857607 -0.855955 -0.852679 0 0 0 0 
378 -0.862459 -0.85961 -0.857889 -0.856908 -0.85569 -0.852679 0 0 0 0 
379 -0.859594 -0.859148 -0.85852 -0.857607 -0.855955 -0.852679 0 0 0 0 
380 -0.859599 -0.85915 -0.85852 -0.857607 -0.855955 -0.852679 0 0 0 0 
381 -0.796553 -0.809569 -0.824884 -0.83999 -0.850976 -0.852679 0 0 0 0 
382 -0.859594 -0.859148 -0.85852 -0.857607 -0.855955 -0.852679 0 0 0 0 
383 -0.859594 -0.859148 -0.85852 -0.857607 -0.855955 -0.852679 0 0 0 0 
384 -0.859594 -0.859148 -0.85852 -0.857607 -0.855955 -0.852679 0 0 0 0 
385 -0.859594 -0.859148 -0.85852 -0.857607 -0.855955 -0.852679 0 0 0 0 
386 -0.859943 -0.860077 -0.859299 -0.857978 -0.856036 -0.852679 0 0 0 0 
387 -0.911792 -0.898731 -0.884481 -0.870793 -0.859595 -0.852679 0 0 0 0 
388 -0.859594 -0.859148 -0.85852 -0.857607 -0.855955 -0.852679 0 0 0 0 
389 -0.859579 -0.85914 -0.858517 -0.857607 -0.855955 -0.852679 0 0 0 0 
390 -0.865205 -0.861391 -0.858826 -0.857253 -0.855754 -0.852679 0 0 0 0 
391 -0.821197 -0.83164 -0.841565 -0.849555 -0.853862 -0.852679 0 0 0 0 
392 -0.89097 -0.88117 -0.871856 -0.863857 -0.857567 -0.852679 0 0 0 0 
393 -0.860364 -0.859558 -0.858676 -0.857642 -0.855958 -0.852679 0 0 0 0 
394 -0.851394 -0.855772 -0.857964 -0.85804 -0.856216 -0.852679 0 0 0 0 
395 -0.859594 -0.859148 -0.85852 -0.857607 -0.855955 -0.852679 0 0 0 0 
396 -0.859594 -0.859148 -0.85852 -0.857607 -0.855955 -0.852679 0 0 0 0 
397 -0.859594 -0.859148 -0.85852 -0.857607 -0.855955 -0.852679 0 0 0 0 
398 -0.794856 -0.809195 -0.825163 -0.840354 -0.851119 -0.852679 0 0 0 0 
399 -0.859487 -0.859126 -0.858527 -0.857614 -0.855957 -0.852679 0 0 0 0 
400 -0.912403 -0.898471 -0.884044 -0.870543 -0.859537 -0.852679 0 0 0 0 
401 -0.859594 -0.859148 -0.85852 -0.857607 -0.855955 -0.852679 0 0 0 0 
402 -0.859409 -0.857715 -0.856939 -0.856572 -0.85563 -0.852679 0 0 0 0 
403 -0.859594 -0.859148 -0.85852 -0.857607 -0.855955 -0.852679 0 0 0 0 
404 -0.856135 -0.85875 -0.859455 -0.858559 -0.856306 -0.852679 0 0 0 0 
405 -0.824259 -0.834549 -0.843847 -0.850882 -0.854262 -0.852679 0 0 0 0 
406 -0.859632 -0.85917 -0.85853 -0.85761 -0.855955 -0.852679 0 0 0 0 
407 -0.886911 -0.877644 -0.869315 -0.862483 -0.857174 -0.852679 0 0 0 0 
408 -0.859594 -0.859148 -0.85852 -0.857607 -0.855955 -0.852679 0 0 0 0 
409 -0.860097 -0.859369 -0.858586 -0.857617 -0.855955 -0.852679 0 0 0 0 
410 -0.858201 -0.858204 -0.858018 -0.857422 -0.855921 -0.852679 0 0 0 0 
411 -0.796443 -0.813069 -0.829186 -0.842997 -0.85196 -0.852679 0 0 0 0 
412 -0.861074 -0.86038 -0.859263 -0.857905 -0.856014 -0.852679 0 0 0 0 
413 -0.909105 -0.894347 -0.88042 -0.868307 -0.858841 -0.852679 0 0 0 0 
414 -0.859579 -0.859142 -0.858518 -0.857607 -0.855955 -0.852679 0 0 0 0 