VARIABLES = "Cell" "Mode 0" "Mode 1" "Mode 2" "Mode 3" "Mode 4" "Mode 5" "Mode 6" "Mode 7" "Mode 8" "Mode 9" 
ZONE T = Iteration104
0 -0.850603 -0.850633 -0.850668 -0.85071 -0.850758 -0.850812 -0.850872 -0.850938 -0.85101 -0.851088 
1 -0.850603 -0.850633 -0.850668 -0.85071 -0.850758 -0.850812 -0.850872 -0.850938 -0.85101 -0.851088 
2 -0.850603 -0.850633 -0.850668 -0.85071 -0.850758 -0.850812 -0.850872 -0.850938 -0.85101 -0.851088 
3 -0.850603 -0.850633 -0.850668 -0.85071 -0.850758 -0.850812 -0.850872 -0.850938 -0.85101 -0.851088 
4 -0.850603 -0.850633 -0.850668 -0.85071 -0.850758 -0.850812 -0.850872 -0.850938 -0.85101 -0.851088 
5 -0.850603 -0.850633 -0.850668 -0.85071 -0.850758 -0.850812 -0.850872 -0.850938 -0.85101 -0.851088 
6 -0.850603 -0.850633 -0.850668 -0.85071 -0.850758 -0.850812 -0.850872 -0.850938 -0.85101 -0.851088 
7 -0.850603 -0.850633 -0.850668 -0.85071 -0.850758 -0.850812 -0.850872 -0.850938 -0.85101 -0.851088 
8 -0.850603 -0.850633 -0.850668 -0.85071 -0.850758 -0.850812 -0.850872 -0.850938 -0.85101 -0.851088 
9 -0.850603 -0.850633 -0.850668 -0.85071 -0.850758 -0.850812 -0.850872 -0.850938 -0.85101 -0.851088 
10 -0.850603 -0.850633 -0.850668 -0.85071 -0.850758 -0.850812 -0.850872 -0.850938 -0.85101 -0.851088 
11 -0.850603 -0.850633 -0.850668 -0.85071 -0.850758 -0.850812 -0.850872 -0.850938 -0.85101 -0.851088 
12 -0.850603 -0.850633 -0.850668 -0.85071 -0.850758 -0.850812 -0.850872 -0.850938 -0.85101 -0.851088 
13 -0.850603 -0.850633 -0.850668 -0.85071 -0.850758 -0.850812 -0.850872 -0.850938 -0.85101 -0.851088 
14 -0.850603 -0.850633 -0.850668 -0.85071 -0.850758 -0.850812 -0.850872 -0.850938 -0.85101 -0.851088 
15 -0.850603 -0.850633 -0.850668 -0.85071 -0.850758 -0.850812 -0.850872 -0.850938 -0.85101 -0.851088 
16 -0.850603 -0.850633 -0.850668 -0.85071 -0.850758 -0.850812 -0.850872 -0.850938 -0.85101 -0.851088 
17 -0.850603 -0.850633 -0.850668 -0.85071 -0.850758 -0.850812 -0.850872 -0.850938 -0.85101 -0.851088 
18 -0.850603 -0.850633 -0.850668 -0.85071 -0.850758 -0.850812 -0.850872 -0.850938 -0.85101 -0.851088 
19 -0.850603 -0.850633 -0.850668 -0.85071 -0.850758 -0.850812 -0.850872 -0.850938 -0.85101 -0.851088 
20 -0.850603 -0.850633 -0.850668 -0.85071 -0.850758 -0.850812 -0.850872 -0.850938 -0.85101 -0.851088 
21 -0.850603 -0.850633 -0.850668 -0.85071 -0.850758 -0.850812 -0.850872 -0.850938 -0.85101 -0.851088 
22 -0.850603 -0.850633 -0.850668 -0.85071 -0.850758 -0.850812 -0.850872 -0.850938 -0.85101 -0.851088 
23 -0.850603 -0.850633 -0.850668 -0.85071 -0.850758 -0.850812 -0.850872 -0.850938 -0.85101 -0.851088 
24 -0.850603 -0.850633 -0.850668 -0.85071 -0.850758 -0.850812 -0.850872 -0.850938 -0.85101 -0.851088 
25 -0.850603 -0.850633 -0.850668 -0.85071 -0.850758 -0.850812 -0.850872 -0.850938 -0.85101 -0.851088 
26 -0.850603 -0.850633 -0.850668 -0.85071 -0.850758 -0.850812 -0.850872 -0.850938 -0.85101 -0.851088 
27 -0.850603 -0.850633 -0.850668 -0.85071 -0.850758 -0.850812 -0.850872 -0.850938 -0.85101 -0.851088 
28 -0.850603 -0.850633 -0.850668 -0.85071 -0.850758 -0.850812 -0.850872 -0.850938 -0.85101 -0.851088 
29 -0.850603 -0.850633 -0.850668 -0.85071 -0.850758 -0.850812 -0.850872 -0.850938 -0.85101 -0.851088 
30 -0.850603 -0.850633 -0.850668 -0.85071 -0.850758 -0.850812 -0.850872 -0.850938 -0.85101 -0.851088 
31 -0.850603 -0.850633 -0.850668 -0.85071 -0.850758 -0.850812 -0.850872 -0.850938 -0.85101 -0.851088 
32 -0.850603 -0.850633 -0.850668 -0.85071 -0.850758 -0.850812 -0.850872 -0.850938 -0.85101 -0.851088 
33 -0.850603 -0.850633 -0.850668 -0.85071 -0.850758 -0.850812 -0.850872 -0.850938 -0.85101 -0.851088 
34 -0.850603 -0.850633 -0.850668 -0.85071 -0.850758 -0.850812 -0.850872 -0.850938 -0.85101 -0.851088 
35 -0.850603 -0.850633 -0.850668 -0.85071 -0.850758 -0.850812 -0.850872 -0.850938 -0.85101 -0.851088 
36 -0.850603 -0.850633 -0.850668 -0.85071 -0.850758 -0.850812 -0.850872 -0.850938 -0.85101 -0.851088 
37 -0.850603 -0.850633 -0.850668 -0.85071 -0.850758 -0.850812 -0.850872 -0.850938 -0.85101 -0.851088 
38 -0.850603 -0.850633 -0.850668 -0.85071 -0.850758 -0.850812 -0.850872 -0.850938 -0.85101 -0.851088 
39 -0.850603 -0.850633 -0.850668 -0.85071 -0.850758 -0.850812 -0.850872 -0.850938 -0.85101 -0.851088 
40 -0.850603 -0.850633 -0.850668 -0.85071 -0.850758 -0.850812 -0.850872 -0.850938 -0.85101 -0.851088 
41 -0.850603 -0.850633 -0.850668 -0.85071 -0.850758 -0.850812 -0.850872 -0.850938 -0.85101 -0.851088 
42 -0.850603 -0.850633 -0.850668 -0.85071 -0.850758 -0.850812 -0.850872 -0.850938 -0.85101 -0.851088 
43 -0.850603 -0.850633 -0.850668 -0.85071 -0.850758 -0.850812 -0.850872 -0.850938 -0.85101 -0.851088 
44 -0.850603 -0.850633 -0.850668 -0.85071 -0.850758 -0.850812 -0.850872 -0.850938 -0.85101 -0.851088 
45 -0.850603 -0.850633 -0.850668 -0.85071 -0.850758 -0.850812 -0.850872 -0.850938 -0.85101 -0.851088 
46 -0.850603 -0.850633 -0.850668 -0.85071 -0.850758 -0.850812 -0.850872 -0.850938 -0.85101 -0.851088 
47 -0.850603 -0.850633 -0.850668 -0.85071 -0.850758 -0.850812 -0.850872 -0.850938 -0.85101 -0.851088 
48 -0.850603 -0.850633 -0.850668 -0.85071 -0.850758 -0.850812 -0.850872 -0.850938 -0.85101 -0.851088 
49 -0.850603 -0.850633 -0.850668 -0.85071 -0.850758 -0.850812 -0.850872 -0.850938 -0.85101 -0.851088 
50 -0.850603 -0.850633 -0.850668 -0.85071 -0.850758 -0.850812 -0.850872 -0.850938 -0.85101 -0.851088 
51 -0.850603 -0.850633 -0.850668 -0.85071 -0.850758 -0.850812 -0.850872 -0.850938 -0.85101 -0.851088 
52 -0.850603 -0.850633 -0.850668 -0.85071 -0.850758 -0.850812 -0.850872 -0.850938 -0.85101 -0.851088 
53 -0.850603 -0.850633 -0.850668 -0.85071 -0.850758 -0.850812 -0.850872 -0.850938 -0.85101 -0.851088 
54 -0.850603 -0.850633 -0.850668 -0.85071 -0.850758 -0.850812 -0.850872 -0.850938 -0.85101 -0.851088 
55 -0.850603 -0.850633 -0.850668 -0.85071 -0.850758 -0.850812 -0.850872 -0.850938 -0.85101 -0.851088 
56 -0.850603 -0.850633 -0.850668 -0.85071 -0.850758 -0.850812 -0.850872 -0.850938 -0.85101 -0.851088 
57 -0.850603 -0.850633 -0.850668 -0.85071 -0.850758 -0.850812 -0.850872 -0.850938 -0.85101 -0.851088 
58 -0.850603 -0.850633 -0.850668 -0.85071 -0.850758 -0.850812 -0.850872 -0.850938 -0.85101 -0.851088 
59 -0.850603 -0.850633 -0.850668 -0.85071 -0.850758 -0.850812 -0.850872 -0.850938 -0.85101 -0.851088 
60 -0.850603 -0.850633 -0.850668 -0.85071 -0.850758 -0.850812 -0.850872 -0.850938 -0.85101 -0.851088 
61 -0.850603 -0.850633 -0.850668 -0.85071 -0.850758 -0.850812 -0.850872 -0.850938 -0.85101 -0.851088 
62 -0.850603 -0.850633 -0.850668 -0.85071 -0.850758 -0.850812 -0.850872 -0.850938 -0.85101 -0.851088 
63 -0.850603 -0.850633 -0.850668 -0.85071 -0.850758 -0.850812 -0.850872 -0.850938 -0.85101 -0.851088 
64 -0.850603 -0.850633 -0.850668 -0.85071 -0.850758 -0.850812 -0.850872 -0.850938 -0.85101 -0.851088 
65 -0.850603 -0.850633 -0.850668 -0.85071 -0.850758 -0.850812 -0.850872 -0.850938 -0.85101 -0.851088 
66 -0.850603 -0.850633 -0.850668 -0.85071 -0.850758 -0.850812 -0.850872 -0.850938 -0.85101 -0.851088 
67 -0.850603 -0.850633 -0.850668 -0.85071 -0.850758 -0.850812 -0.850872 -0.850938 -0.85101 -0.851088 
68 -0.850603 -0.850633 -0.850668 -0.85071 -0.850758 -0.850812 -0.850872 -0.850938 -0.85101 -0.851088 
69 -0.850603 -0.850633 -0.850668 -0.85071 -0.850758 -0.850812 -0.850872 -0.850938 -0.85101 -0.851088 
70 -0.850603 -0.850633 -0.850668 -0.85071 -0.850758 -0.850812 -0.850872 -0.850938 -0.85101 -0.851088 
71 -0.850603 -0.850633 -0.850668 -0.85071 -0.850758 -0.850812 -0.850872 -0.850938 -0.85101 -0.851088 
72 -0.850603 -0.850633 -0.850668 -0.85071 -0.850758 -0.850812 -0.850872 -0.850938 -0.85101 -0.851088 
73 -0.850603 -0.850633 -0.850668 -0.85071 -0.850758 -0.850812 -0.850872 -0.850938 -0.85101 -0.851088 
74 -0.850603 -0.850633 -0.850668 -0.85071 -0.850758 -0.850812 -0.850872 -0.850938 -0.85101 -0.851088 
75 -0.850603 -0.850633 -0.850668 -0.85071 -0.850758 -0.850812 -0.850872 -0.850938 -0.85101 -0.851088 
76 -0.850603 -0.850633 -0.850668 -0.85071 -0.850758 -0.850812 -0.850872 -0.850938 -0.85101 -0.851088 
77 -0.850603 -0.850633 -0.850668 -0.85071 -0.850758 -0.850812 -0.850872 -0.850938 -0.85101 -0.851088 
78 -0.850603 -0.850633 -0.850668 -0.85071 -0.850758 -0.850812 -0.850872 -0.850938 -0.85101 -0.851088 
79 -0.850603 -0.850633 -0.850668 -0.85071 -0.850758 -0.850812 -0.850872 -0.850938 -0.85101 -0.851088 
80 -0.850603 -0.850633 -0.850668 -0.85071 -0.850758 -0.850812 -0.850872 -0.850938 -0.85101 -0.851088 
81 -0.850603 -0.850633 -0.850668 -0.85071 -0.850758 -0.850812 -0.850872 -0.850938 -0.85101 -0.851088 
82 -0.850603 -0.850633 -0.850668 -0.85071 -0.850758 -0.850812 -0.850872 -0.850938 -0.85101 -0.851088 
83 -0.850603 -0.850633 -0.850668 -0.85071 -0.850758 -0.850812 -0.850872 -0.850938 -0.85101 -0.851088 
84 -0.850603 -0.850633 -0.850668 -0.85071 -0.850758 -0.850812 -0.850872 -0.850938 -0.85101 -0.851088 
85 -0.850603 -0.850633 -0.850668 -0.85071 -0.850758 -0.850812 -0.850872 -0.850938 -0.85101 -0.851088 
86 -0.850603 -0.850633 -0.850668 -0.85071 -0.850758 -0.850812 -0.850872 -0.850938 -0.85101 -0.851088 
87 -0.850603 -0.850633 -0.850668 -0.85071 -0.850758 -0.850812 -0.850872 -0.850938 -0.85101 -0.851088 
88 -0.850603 -0.850633 -0.850668 -0.85071 -0.850758 -0.850812 -0.850872 -0.850938 -0.85101 -0.851088 
89 -0.850603 -0.850633 -0.850668 -0.85071 -0.850758 -0.850812 -0.850872 -0.850938 -0.85101 -0.851088 
90 -0.850603 -0.850633 -0.850668 -0.85071 -0.850758 -0.850812 -0.850872 -0.850938 -0.85101 -0.851088 
91 -0.850603 -0.850633 -0.850668 -0.85071 -0.850758 -0.850812 -0.850872 -0.850938 -0.85101 -0.851088 
92 -0.850603 -0.850633 -0.850668 -0.85071 -0.850758 -0.850812 -0.850872 -0.850938 -0.85101 -0.851088 
93 -0.850603 -0.850633 -0.850668 -0.85071 -0.850758 -0.850812 -0.850872 -0.850938 -0.85101 -0.851088 
94 -0.850603 -0.850633 -0.850668 -0.85071 -0.850758 -0.850812 -0.850872 -0.850938 -0.85101 -0.851088 
95 -0.850603 -0.850633 -0.850669 -0.85071 -0.850758 -0.850812 -0.850872 -0.850938 -0.851011 -0.851088 
96 -0.850603 -0.850633 -0.850668 -0.85071 -0.850758 -0.850812 -0.850872 -0.850938 -0.85101 -0.851088 
97 -0.850603 -0.850633 -0.850668 -0.85071 -0.850758 -0.850812 -0.850872 -0.850938 -0.85101 -0.851088 
98 -0.850603 -0.850633 -0.850668 -0.85071 -0.850758 -0.850812 -0.850872 -0.850938 -0.85101 -0.851088 
99 -0.850605 -0.850635 -0.85067 -0.850711 -0.850759 -0.850813 -0.850873 -0.850939 -0.851011 -0.851089 
100 -0.850602 -0.850632 -0.850668 -0.850709 -0.850757 -0.850811 -0.850871 -0.850938 -0.85101 -0.851088 
101 -0.850603 -0.850633 -0.850668 -0.85071 -0.850758 -0.850812 -0.850872 -0.850938 -0.85101 -0.851088 
102 -0.850604 -0.850634 -0.850669 -0.85071 -0.850758 -0.850812 -0.850872 -0.850939 -0.851011 -0.851088 
103 -0.850603 -0.850633 -0.850668 -0.85071 -0.850758 -0.850812 -0.850872 -0.850938 -0.85101 -0.851088 
104 -0.850603 -0.850633 -0.850668 -0.85071 -0.850757 -0.850811 -0.850871 -0.850938 -0.85101 -0.851087 
105 -0.850601 -0.850631 -0.850667 -0.850708 -0.850756 -0.85081 -0.850871 -0.850937 -0.851009 -0.851087 
106 -0.850603 -0.850633 -0.850669 -0.85071 -0.850758 -0.850812 -0.850872 -0.850938 -0.851011 -0.851088 
107 -0.850603 -0.850633 -0.850668 -0.85071 -0.850758 -0.850812 -0.850872 -0.850938 -0.85101 -0.851088 
108 -0.850604 -0.850633 -0.850669 -0.85071 -0.850758 -0.850812 -0.850872 -0.850938 -0.851011 -0.851088 
109 -0.850603 -0.850633 -0.850668 -0.85071 -0.850758 -0.850812 -0.850872 -0.850938 -0.851011 -0.851088 
110 -0.850603 -0.850634 -0.85067 -0.850713 -0.850761 -0.850816 -0.850877 -0.850944 -0.851016 -0.851094 
111 -0.85061 -0.85064 -0.850675 -0.850716 -0.850763 -0.850817 -0.850877 -0.850943 -0.851015 -0.851092 
112 -0.850603 -0.850633 -0.850668 -0.85071 -0.850758 -0.850812 -0.850872 -0.850938 -0.85101 -0.851088 
113 -0.850603 -0.850633 -0.850668 -0.85071 -0.850758 -0.850812 -0.850872 -0.850938 -0.85101 -0.851088 
114 -0.8506 -0.85063 -0.850666 -0.850708 -0.850756 -0.85081 -0.850871 -0.850938 -0.85101 -0.851088 
115 -0.850578 -0.850608 -0.850644 -0.850686 -0.850734 -0.850789 -0.85085 -0.850918 -0.850991 -0.851069 
116 -0.850607 -0.850637 -0.850672 -0.850713 -0.850761 -0.850814 -0.850874 -0.85094 -0.851012 -0.85109 
117 -0.850647 -0.850676 -0.850711 -0.850751 -0.850798 -0.850851 -0.85091 -0.850974 -0.851045 -0.851121 
118 -0.850562 -0.850594 -0.850632 -0.850675 -0.850725 -0.850781 -0.850843 -0.850912 -0.850986 -0.851065 
119 -0.85054 -0.850573 -0.850612 -0.850657 -0.850709 -0.850766 -0.85083 -0.850899 -0.850975 -0.851056 
120 -0.85055 -0.850591 -0.850636 -0.850688 -0.850744 -0.850806 -0.850874 -0.850947 -0.851025 -0.851107 
121 -0.85071 -0.850721 -0.85074 -0.850765 -0.850797 -0.850837 -0.850884 -0.850939 -0.851 -0.851067 
122 -0.850476 -0.850514 -0.850557 -0.850606 -0.850662 -0.850724 -0.850792 -0.850866 -0.850946 -0.85103 
123 -0.850611 -0.850637 -0.850669 -0.850708 -0.850753 -0.850804 -0.850862 -0.850926 -0.850996 -0.851072 
124 -0.850578 -0.85061 -0.850648 -0.850692 -0.850742 -0.850798 -0.85086 -0.850927 -0.851001 -0.85108 
125 -0.850334 -0.850323 -0.850321 -0.850329 -0.850346 -0.850373 -0.85041 -0.850456 -0.850512 -0.850576 
126 -0.850603 -0.850633 -0.850668 -0.85071 -0.850758 -0.850812 -0.850872 -0.850938 -0.85101 -0.851088 
127 -0.851095 -0.851135 -0.851178 -0.851225 -0.851276 -0.851331 -0.851391 -0.851455 -0.851523 -0.851594 
128 -0.850509 -0.850543 -0.850583 -0.850628 -0.85068 -0.850738 -0.850802 -0.850872 -0.850947 -0.851028 
129 -0.850398 -0.850463 -0.850533 -0.850607 -0.850686 -0.85077 -0.850858 -0.85095 -0.851046 -0.851146 
130 -0.850074 -0.850085 -0.850105 -0.850135 -0.850174 -0.850223 -0.850281 -0.850349 -0.850426 -0.850511 
131 -0.850819 -0.850825 -0.850837 -0.850856 -0.850883 -0.850916 -0.850957 -0.851004 -0.851059 -0.85112 
132 -0.851095 -0.851096 -0.851103 -0.851116 -0.851136 -0.851162 -0.851195 -0.851235 -0.851282 -0.851335 
133 -0.849538 -0.849627 -0.849723 -0.849825 -0.849933 -0.850047 -0.850167 -0.850292 -0.850422 -0.850557 
134 -0.850902 -0.850911 -0.850925 -0.850944 -0.850967 -0.850997 -0.851031 -0.851071 -0.851116 -0.851167 
135 -0.851071 -0.851149 -0.851229 -0.85131 -0.851394 -0.851481 -0.851569 -0.85166 -0.851752 -0.851846 
136 -0.850603 -0.850633 -0.850668 -0.85071 -0.850758 -0.850812 -0.850872 -0.850938 -0.85101 -0.851088 
137 -0.850603 -0.850633 -0.850668 -0.85071 -0.850758 -0.850812 -0.850872 -0.850939 -0.851011 -0.851088 
138 -0.856769 -0.856637 -0.856496 -0.856344 -0.856185 -0.856018 -0.855844 -0.855664 -0.855479 -0.85529 
139 -0.844395 -0.844574 -0.844772 -0.844988 -0.845222 -0.845474 -0.845743 -0.846027 -0.846328 -0.846642 
140 -0.850566 -0.850598 -0.850636 -0.85068 -0.85073 -0.850786 -0.850849 -0.850917 -0.850992 -0.851071 
141 -0.85041 -0.850321 -0.850242 -0.850175 -0.85012 -0.850077 -0.850048 -0.850031 -0.850028 -0.850038 
142 -0.851399 -0.851567 -0.851732 -0.851896 -0.852057 -0.852215 -0.85237 -0.852522 -0.852671 -0.852815 
143 -0.850575 -0.850529 -0.850493 -0.850469 -0.850455 -0.850453 -0.850463 -0.850483 -0.850515 -0.850557 
144 -0.849832 -0.850069 -0.850323 -0.850594 -0.850882 -0.851185 -0.851502 -0.851832 -0.852174 -0.852525 
145 -0.851072 -0.851191 -0.851311 -0.851431 -0.851552 -0.851674 -0.851795 -0.851917 -0.852039 -0.85216 
146 -0.854795 -0.854626 -0.854457 -0.85429 -0.854124 -0.853961 -0.853802 -0.853646 -0.853495 -0.853348 
147 -0.849776 -0.849832 -0.849896 -0.849967 -0.850047 -0.850134 -0.850229 -0.850332 -0.85044 -0.850555 
148 -0.852015 -0.851996 -0.85198 -0.851967 -0.851958 -0.851954 -0.851954 -0.851959 -0.851968 -0.851982 
149 -0.857763 -0.857751 -0.857733 -0.857708 -0.857675 -0.857635 -0.857587 -0.85753 -0.857465 -0.857391 
150 -0.852145 -0.851938 -0.851744 -0.851563 -0.851396 -0.851243 -0.851105 -0.850983 -0.850875 -0.850783 
151 -0.846227 -0.846285 -0.84635 -0.846421 -0.846501 -0.846588 -0.846684 -0.846788 -0.8469 -0.847021 
152 -0.850544 -0.850571 -0.850603 -0.850643 -0.850689 -0.850743 -0.850803 -0.850869 -0.850942 -0.851021 
153 -0.8515 -0.851394 -0.851292 -0.851194 -0.851101 -0.851012 -0.850929 -0.850849 -0.850774 -0.850702 
154 -0.841913 -0.841827 -0.841761 -0.841715 -0.841691 -0.84169 -0.841713 -0.841759 -0.84183 -0.841926 
155 -0.839339 -0.839625 -0.839927 -0.840246 -0.840582 -0.840935 -0.841304 -0.841689 -0.842089 -0.842504 
156 -0.857453 -0.85751 -0.857579 -0.857661 -0.857758 -0.85787 -0.857997 -0.858141 -0.858301 -0.858478 
157 -0.865563 -0.865539 -0.865498 -0.86544 -0.865365 -0.865273 -0.865162 -0.865034 -0.864887 -0.864721 
158 -0.843351 -0.84379 -0.844238 -0.844694 -0.845157 -0.845627 -0.846103 -0.846583 -0.847067 -0.847553 
159 -0.850599 -0.85063 -0.850666 -0.850708 -0.850756 -0.850811 -0.850871 -0.850938 -0.85101 -0.851088 
160 -0.862396 -0.862336 -0.862265 -0.862184 -0.862093 -0.861991 -0.861877 -0.861751 -0.861613 -0.861462 
161 -0.830698 -0.830596 -0.830502 -0.830415 -0.830337 -0.830267 -0.830208 -0.83016 -0.830123 -0.830097 
162 -0.845975 -0.845857 -0.845742 -0.84563 -0.845523 -0.845418 -0.845316 -0.845217 -0.845118 -0.845021 
163 -0.83088 -0.831016 -0.831165 -0.831328 -0.831505 -0.831696 -0.831901 -0.83212 -0.832352 -0.832597 
164 -0.860024 -0.860157 -0.860301 -0.860456 -0.860623 -0.860801 -0.860991 -0.861192 -0.861404 -0.861626 
165 -0.866114 -0.86624 -0.86637 -0.866504 -0.866641 -0.866783 -0.866929 -0.867079 -0.867232 -0.867387 
166 -0.827478 -0.827437 -0.827402 -0.827373 -0.827349 -0.827332 -0.827322 -0.827319 -0.827324 -0.827335 
167 -0.853876 -0.853834 -0.853796 -0.85376 -0.853728 -0.853698 -0.853671 -0.853647 -0.853623 -0.853601 
168 -0.835021 -0.83482 -0.83462 -0.834422 -0.834226 -0.834033 -0.833844 -0.833659 -0.833478 -0.833302 
169 -0.873181 -0.873453 -0.873709 -0.873946 -0.874163 -0.874358 -0.874528 -0.874669 -0.874781 -0.874859 
170 -0.866181 -0.866262 -0.866348 -0.866441 -0.866543 -0.866654 -0.866775 -0.866908 -0.867052 -0.867209 
171 -0.867498 -0.867725 -0.867973 -0.868241 -0.868532 -0.868846 -0.869184 -0.869547 -0.869934 -0.870346 
172 -0.83404 -0.833963 -0.833893 -0.833829 -0.833772 -0.833724 -0.833682 -0.833648 -0.833622 -0.833601 
173 -0.850603 -0.850633 -0.850668 -0.85071 -0.850758 -0.850812 -0.850872 -0.850938 -0.85101 -0.851088 
174 -0.859101 -0.859157 -0.859228 -0.859311 -0.859406 -0.859511 -0.859624 -0.859744 -0.859868 -0.859994 
175 -0.871263 -0.871255 -0.871253 -0.871259 -0.871273 -0.871296 -0.871329 -0.871374 -0.87143 -0.871498 
176 -0.83911 -0.839031 -0.83896 -0.838898 -0.838847 -0.838808 -0.838781 -0.838767 -0.838766 -0.83878 
177 -0.831317 -0.831195 -0.831058 -0.830908 -0.830744 -0.830567 -0.830377 -0.830175 -0.829961 -0.829738 
178 -0.868147 -0.868222 -0.868305 -0.868397 -0.868498 -0.868605 -0.868719 -0.868838 -0.868961 -0.869087 
179 -0.850603 -0.850633 -0.850668 -0.85071 -0.850758 -0.850812 -0.850872 -0.850938 -0.85101 -0.851088 
180 -0.844379 -0.844551 -0.844748 -0.844968 -0.84521 -0.845474 -0.845756 -0.846055 -0.846369 -0.846694 
181 -0.873311 -0.87337 -0.873452 -0.87356 -0.873697 -0.873865 -0.874066 -0.874303 -0.874576 -0.874887 
182 -0.825444 -0.825371 -0.825294 -0.825214 -0.825132 -0.82505 -0.824969 -0.82489 -0.824813 -0.82474 
183 -0.830412 -0.83056 -0.830736 -0.83094 -0.831172 -0.831432 -0.831719 -0.83203 -0.832365 -0.832721 
184 -0.830974 -0.830708 -0.830427 -0.830134 -0.829828 -0.829512 -0.829185 -0.82885 -0.828507 -0.828158 
185 -0.874259 -0.874242 -0.874239 -0.874255 -0.87429 -0.874347 -0.874428 -0.874535 -0.874668 -0.87483 
186 -0.883485 -0.883774 -0.884083 -0.884411 -0.884754 -0.885107 -0.885467 -0.885831 -0.886193 -0.88655 
187 -0.832661 -0.832519 -0.832361 -0.832187 -0.831998 -0.831793 -0.831571 -0.831335 -0.831083 -0.830817 
188 -0.856627 -0.857099 -0.857599 -0.858122 -0.858665 -0.859223 -0.85979 -0.860361 -0.86093 -0.861492 
189 -0.879857 -0.880361 -0.880889 -0.881436 -0.881997 -0.882565 -0.883134 -0.883698 -0.884251 -0.884787 
190 -0.850576 -0.850646 -0.85072 -0.850797 -0.850879 -0.850964 -0.851052 -0.851145 -0.851241 -0.851339 
191 -0.850603 -0.850633 -0.850668 -0.85071 -0.850758 -0.850812 -0.850872 -0.850938 -0.85101 -0.851088 
192 -0.803698 -0.804029 -0.804378 -0.804745 -0.80513 -0.80553 -0.805945 -0.806373 -0.806812 -0.807259 
193 -0.850603 -0.850633 -0.850668 -0.85071 -0.850758 -0.850812 -0.850872 -0.850938 -0.85101 -0.851088 
194 -0.868544 -0.868887 -0.869234 -0.869582 -0.869932 -0.870282 -0.87063 -0.870975 -0.871316 -0.87165 
195 -0.849948 -0.850513 -0.851086 -0.851662 -0.852238 -0.852809 -0.85337 -0.853917 -0.854446 -0.854952 
196 -0.837109 -0.837236 -0.837382 -0.837549 -0.837737 -0.837945 -0.838176 -0.838427 -0.838699 -0.838993 
197 -0.85118 -0.851196 -0.851216 -0.851241 -0.851271 -0.851306 -0.851346 -0.851392 -0.851442 -0.851497 
198 -0.850603 -0.850633 -0.850668 -0.85071 -0.850758 -0.850812 -0.850872 -0.850938 -0.85101 -0.851088 
199 -0.792885 -0.792875 -0.792856 -0.792831 -0.792804 -0.792777 -0.792753 -0.792736 -0.792728 -0.792732 
200 -0.828761 -0.829227 -0.8297 -0.830178 -0.830658 -0.831138 -0.831614 -0.832086 -0.832549 -0.833003 
201 -0.900671 -0.901296 -0.901935 -0.902581 -0.903229 -0.903869 -0.904495 -0.905099 -0.905674 -0.906213 
202 -0.850603 -0.850633 -0.850668 -0.85071 -0.850758 -0.850812 -0.850872 -0.850938 -0.85101 -0.851088 
203 -0.868723 -0.868911 -0.869133 -0.86939 -0.869683 -0.870014 -0.870384 -0.870793 -0.87124 -0.871726 
204 -0.855141 -0.854997 -0.854857 -0.854723 -0.854594 -0.854472 -0.854357 -0.854249 -0.854149 -0.854056 
205 -0.891835 -0.8922 -0.892579 -0.892968 -0.893363 -0.893761 -0.894157 -0.894548 -0.894931 -0.895302 
206 -0.850603 -0.850633 -0.850668 -0.85071 -0.850758 -0.850812 -0.850872 -0.850938 -0.85101 -0.851088 
207 -0.7723 -0.77258 -0.772859 -0.773138 -0.773418 -0.773701 -0.773987 -0.774278 -0.774575 -0.77488 
208 -0.857743 -0.858325 -0.858897 -0.859456 -0.859997 -0.860515 -0.861006 -0.861465 -0.86189 -0.862276 
209 -0.887769 -0.887958 -0.888157 -0.888366 -0.888585 -0.888814 -0.889054 -0.889304 -0.889564 -0.889835 
210 -0.914829 -0.915489 -0.916148 -0.9168 -0.917438 -0.918057 -0.918648 -0.919207 -0.919727 -0.920202 
211 -0.850603 -0.850633 -0.850668 -0.85071 -0.850758 -0.850812 -0.850872 -0.850938 -0.85101 -0.851088 
212 -0.850603 -0.850633 -0.850668 -0.85071 -0.850758 -0.850812 -0.850872 -0.850938 -0.85101 -0.851088 
213 -0.828526 -0.828227 -0.827949 -0.827694 -0.827463 -0.827258 -0.827079 -0.826928 -0.826805 -0.82671 
214 -0.759665 -0.759776 -0.75988 -0.759981 -0.760082 -0.760187 -0.7603 -0.760423 -0.760561 -0.760717 
215 -0.792751 -0.793235 -0.793704 -0.794156 -0.79459 -0.795004 -0.795394 -0.795761 -0.796105 -0.796423 
216 -0.799644 -0.800086 -0.800513 -0.800923 -0.801312 -0.801676 -0.802011 -0.802314 -0.802584 -0.802818 
217 -0.860141 -0.859901 -0.859658 -0.859413 -0.859166 -0.85892 -0.858675 -0.858431 -0.85819 -0.857953 
218 -0.843207 -0.843716 -0.8442 -0.844656 -0.84508 -0.845471 -0.845825 -0.846141 -0.846417 -0.84665 
219 -0.85059 -0.85062 -0.850656 -0.850698 -0.850746 -0.850801 -0.850862 -0.850928 -0.851001 -0.851079 
220 -0.944161 -0.944585 -0.945013 -0.945442 -0.945865 -0.946279 -0.94668 -0.947062 -0.94742 -0.947747 
221 -0.787458 -0.787815 -0.788159 -0.788489 -0.788806 -0.789112 -0.789406 -0.789692 -0.789969 -0.79024 
222 -0.735831 -0.736348 -0.736829 -0.737271 -0.737673 -0.738031 -0.738345 -0.738611 -0.73883 -0.739001 
223 -0.898828 -0.899172 -0.899511 -0.899842 -0.900162 -0.900465 -0.90075 -0.901013 -0.901251 -0.901461 
224 -0.915942 -0.916483 -0.917044 -0.917618 -0.918199 -0.918778 -0.919349 -0.919904 -0.920434 -0.920934 
225 -0.829957 -0.829768 -0.829571 -0.829365 -0.829149 -0.828921 -0.828683 -0.828432 -0.828169 -0.827895 
226 -0.800144 -0.799925 -0.799691 -0.799446 -0.799194 -0.798941 -0.798693 -0.798454 -0.798228 -0.79802 
227 -0.885744 -0.886107 -0.88646 -0.886801 -0.887126 -0.887433 -0.887719 -0.887982 -0.88822 -0.888429 
228 -0.822066 -0.821874 -0.821677 -0.821476 -0.821271 -0.821061 -0.820847 -0.820627 -0.820402 -0.820169 
229 -0.850603 -0.850633 -0.850668 -0.85071 -0.850758 -0.850812 -0.850872 -0.850938 -0.85101 -0.851088 
230 -0.850603 -0.850633 -0.850668 -0.85071 -0.850758 -0.850812 -0.850872 -0.850938 -0.85101 -0.851088 
231 -0.850603 -0.850633 -0.850668 -0.85071 -0.850758 -0.850812 -0.850872 -0.850938 -0.85101 -0.851088 
232 -1.0915 -1.09191 -1.0923 -1.09267 -1.09302 -1.09335 -1.09364 -1.09391 -1.09414 -1.09434 
233 -0.850603 -0.850633 -0.850669 -0.85071 -0.850758 -0.850812 -0.850872 -0.850938 -0.851011 -0.851088 
234 -0.979196 -0.979602 -0.98001 -0.980416 -0.980815 -0.981205 -0.98158 -0.981937 -0.982271 -0.982578 
235 -0.643577 -0.644059 -0.644513 -0.644934 -0.645318 -0.645663 -0.645967 -0.646226 -0.646436 -0.646595 
236 -0.906369 -0.906867 -0.907387 -0.907924 -0.908471 -0.909022 -0.909568 -0.910103 -0.91062 -0.911112 
237 -1.1064 -1.10676 -1.1071 -1.10743 -1.10776 -1.10807 -1.10837 -1.10864 -1.1089 -1.10914 
238 -0.850574 -0.850602 -0.850637 -0.850677 -0.850724 -0.850778 -0.850837 -0.850903 -0.850975 -0.851052 
239 -0.702344 -0.702733 -0.703106 -0.703459 -0.703787 -0.704089 -0.704361 -0.704598 -0.704794 -0.704946 
240 -0.761919 -0.761933 -0.761928 -0.76191 -0.761884 -0.761854 -0.761826 -0.761806 -0.7618 -0.761811 
241 -0.72709 -0.727367 -0.727624 -0.727862 -0.728083 -0.728288 -0.72848 -0.72866 -0.728831 -0.728996 
242 -0.850603 -0.850633 -0.850668 -0.85071 -0.850758 -0.850812 -0.850872 -0.850938 -0.85101 -0.851088 
243 -0.984739 -0.985158 -0.985585 -0.986017 -0.986448 -0.986874 -0.987288 -0.987687 -0.988063 -0.988414 
244 -1.1154 -1.11553 -1.11566 -1.11578 -1.1159 -1.11602 -1.11612 -1.11623 -1.11633 -1.11643 
245 -0.517815 -0.518124 -0.518398 -0.518633 -0.51883 -0.518987 -0.519101 -0.51917 -0.519191 -0.519168 
246 -1.04598 -1.04613 -1.04629 -1.04645 -1.04661 -1.04677 -1.04693 -1.0471 -1.04726 -1.04742 
247 -0.842593 -0.842942 -0.843301 -0.843668 -0.844045 -0.844429 -0.84482 -0.845218 -0.845622 -0.846029 
248 -0.850603 -0.850633 -0.850668 -0.85071 -0.850758 -0.850812 -0.850872 -0.850938 -0.85101 -0.851088 
249 -0.605996 -0.606312 -0.606594 -0.606844 -0.60706 -0.607242 -0.607389 -0.607501 -0.607578 -0.607624 
250 -0.811253 -0.810951 -0.810644 -0.810338 -0.810035 -0.809739 -0.809453 -0.809179 -0.808919 -0.808674 
251 -0.768701 -0.768535 -0.768352 -0.76816 -0.767965 -0.767774 -0.767593 -0.767431 -0.767292 -0.767184 
252 -0.737912 -0.738038 -0.738142 -0.738228 -0.738298 -0.738357 -0.738407 -0.738454 -0.738502 -0.738554 
253 -0.850603 -0.850633 -0.850668 -0.85071 -0.850758 -0.850812 -0.850872 -0.850938 -0.85101 -0.851088 
254 -0.879388 -0.879488 -0.879592 -0.8797 -0.879814 -0.879934 -0.880061 -0.880198 -0.880345 -0.880504 
255 -0.850603 -0.850633 -0.850668 -0.85071 -0.850758 -0.850812 -0.850872 -0.850938 -0.85101 -0.851088 
256 -0.870541 -0.870817 -0.871091 -0.871362 -0.871628 -0.871888 -0.872141 -0.872387 -0.872623 -0.872848 
257 -1.04382 -1.04382 -1.04385 -1.04388 -1.04394 -1.04401 -1.0441 -1.0442 -1.04432 -1.04446 
258 -0.825293 -0.825185 -0.825074 -0.824957 -0.824833 -0.8247 -0.824555 -0.824396 -0.824221 -0.824029 
259 -0.869336 -0.869371 -0.869414 -0.869468 -0.869536 -0.869622 -0.869728 -0.869857 -0.870012 -0.870196 
260 -0.625985 -0.626132 -0.626254 -0.62635 -0.626421 -0.626465 -0.626483 -0.626475 -0.626444 -0.626393 
261 -0.991776 -0.992039 -0.992314 -0.992598 -0.992889 -0.993183 -0.99348 -0.993774 -0.994064 -0.994347 
262 -1.02397 -1.02406 -1.02415 -1.02426 -1.02439 -1.02452 -1.02467 -1.02483 -1.02499 -1.02517 
263 -0.850603 -0.850633 -0.850668 -0.85071 -0.850758 -0.850812 -0.850872 -0.850938 -0.85101 -0.851088 
264 -0.834645 -0.834489 -0.834329 -0.834165 -0.833999 -0.83383 -0.833658 -0.833484 -0.833308 -0.833131 
265 -0.710205 -0.710305 -0.710385 -0.710445 -0.710488 -0.710517 -0.710534 -0.710543 -0.710549 -0.710554 
266 -0.669585 -0.669704 -0.669803 -0.669882 -0.669941 -0.669981 -0.670003 -0.670009 -0.670001 -0.669981 
267 -0.907072 -0.907458 -0.907873 -0.908312 -0.908772 -0.909247 -0.909731 -0.910219 -0.910703 -0.911177 
268 -0.835404 -0.835167 -0.834948 -0.834747 -0.834566 -0.834403 -0.834259 -0.834133 -0.834025 -0.833933 
269 -0.850603 -0.850633 -0.850668 -0.85071 -0.850758 -0.850812 -0.850872 -0.850938 -0.85101 -0.851088 
270 -1.0056 -1.0056 -1.00561 -1.00563 -1.00566 -1.0057 -1.00575 -1.00582 -1.00589 -1.00598 
271 -0.964416 -0.964664 -0.964932 -0.965218 -0.965519 -0.965833 -0.966156 -0.966486 -0.96682 -0.967155 
272 -0.689587 -0.689635 -0.689667 -0.689682 -0.68968 -0.689662 -0.68963 -0.689587 -0.689532 -0.689466 
273 -0.773353 -0.773105 -0.772829 -0.772531 -0.772218 -0.771898 -0.771577 -0.771263 -0.770964 -0.770687 
274 -0.734413 -0.734426 -0.73442 -0.734396 -0.734357 -0.734308 -0.734252 -0.734192 -0.734132 -0.734075 
275 -0.850651 -0.850676 -0.850707 -0.850744 -0.850788 -0.850839 -0.850895 -0.850958 -0.851028 -0.851102 
276 -0.976581 -0.976651 -0.976739 -0.976846 -0.976973 -0.977117 -0.977279 -0.977457 -0.97765 -0.977857 
277 -0.850603 -0.850633 -0.850668 -0.85071 -0.850758 -0.850812 -0.850872 -0.850938 -0.85101 -0.851088 
278 -0.714338 -0.71433 -0.714306 -0.714268 -0.714217 -0.714156 -0.714086 -0.714011 -0.71393 -0.713847 
279 -0.764295 -0.764166 -0.764012 -0.763835 -0.763642 -0.763438 -0.763228 -0.763018 -0.762814 -0.762622 
280 -0.934774 -0.935054 -0.935362 -0.935697 -0.936055 -0.936433 -0.936827 -0.937233 -0.937645 -0.938058 
281 -0.815954 -0.815442 -0.814921 -0.814398 -0.813877 -0.813366 -0.812868 -0.812387 -0.811928 -0.811493 
282 -0.939555 -0.939617 -0.939693 -0.939784 -0.939886 -0.939999 -0.940123 -0.940253 -0.94039 -0.940531 
283 -0.89249 -0.892789 -0.893108 -0.893445 -0.893797 -0.894159 -0.894528 -0.894898 -0.895264 -0.895622 
284 -0.79498 -0.79451 -0.794017 -0.793508 -0.792991 -0.792474 -0.791966 -0.791473 -0.791003 -0.790565 
285 -0.744288 -0.744354 -0.744407 -0.744446 -0.744473 -0.744485 -0.744483 -0.744466 -0.744435 -0.744391 
286 -0.850603 -0.850633 -0.850668 -0.85071 -0.850758 -0.850812 -0.850872 -0.850938 -0.85101 -0.851088 
287 -0.780732 -0.780513 -0.780268 -0.78 -0.779714 -0.779416 -0.779109 -0.778801 -0.778499 -0.778209 
288 -0.925792 -0.925908 -0.926048 -0.926209 -0.926391 -0.92659 -0.926805 -0.927031 -0.927266 -0.927506 
289 -0.831614 -0.831497 -0.831388 -0.831286 -0.831187 -0.831087 -0.830983 -0.83087 -0.830743 -0.8306 