VARIABLES = "Cell" "Mode 0" "Mode 1" "Mode 2" "Mode 3" "Mode 4" "Mode 5" "Mode 6" "Mode 7" "Mode 8" "Mode 9" 
ZONE T = Iteration142
0 -0.850001 -0.850027 -0.850054 -0.850083 -0.850112 -0.850141 -0.850171 -0.850201 -0.850231 -0.85026 
1 -0.850001 -0.850027 -0.850054 -0.850083 -0.850112 -0.850141 -0.850171 -0.850201 -0.850231 -0.85026 
2 -0.850001 -0.850027 -0.850054 -0.850083 -0.850112 -0.850141 -0.850171 -0.850201 -0.850231 -0.85026 
3 -0.850001 -0.850027 -0.850054 -0.850083 -0.850112 -0.850141 -0.850171 -0.850201 -0.850231 -0.85026 
4 -0.850001 -0.850027 -0.850054 -0.850083 -0.850112 -0.850141 -0.850171 -0.850201 -0.850231 -0.85026 
5 -0.850001 -0.850027 -0.850054 -0.850083 -0.850112 -0.850141 -0.850171 -0.850201 -0.850231 -0.85026 
6 -0.850001 -0.850027 -0.850054 -0.850083 -0.850112 -0.850141 -0.850171 -0.850201 -0.850231 -0.85026 
7 -0.850001 -0.850027 -0.850054 -0.850083 -0.850112 -0.850141 -0.850171 -0.850201 -0.850231 -0.85026 
8 -0.850001 -0.850027 -0.850054 -0.850083 -0.850112 -0.850141 -0.850171 -0.850201 -0.850231 -0.85026 
9 -0.850001 -0.850027 -0.850054 -0.850083 -0.850112 -0.850141 -0.850171 -0.850201 -0.850231 -0.85026 
10 -0.850001 -0.850027 -0.850054 -0.850083 -0.850112 -0.850141 -0.850171 -0.850201 -0.850231 -0.85026 
11 -0.850001 -0.850027 -0.850054 -0.850083 -0.850112 -0.850141 -0.850171 -0.850201 -0.850231 -0.85026 
12 -0.850001 -0.850027 -0.850054 -0.850083 -0.850112 -0.850141 -0.850171 -0.850201 -0.850231 -0.85026 
13 -0.850001 -0.850027 -0.850054 -0.850083 -0.850112 -0.850141 -0.850171 -0.850201 -0.850231 -0.85026 
14 -0.850001 -0.850027 -0.850054 -0.850083 -0.850112 -0.850141 -0.850171 -0.850201 -0.850231 -0.85026 
15 -0.850001 -0.850027 -0.850054 -0.850083 -0.850112 -0.850141 -0.850171 -0.850201 -0.850231 -0.85026 
16 -0.850001 -0.850027 -0.850054 -0.850083 -0.850112 -0.850141 -0.850171 -0.850201 -0.850231 -0.85026 
17 -0.850001 -0.850027 -0.850054 -0.850083 -0.850112 -0.850141 -0.850171 -0.850201 -0.850231 -0.85026 
18 -0.850001 -0.850027 -0.850054 -0.850083 -0.850112 -0.850141 -0.850171 -0.850201 -0.850231 -0.85026 
19 -0.850001 -0.850027 -0.850054 -0.850083 -0.850112 -0.850141 -0.850171 -0.850201 -0.850231 -0.85026 
20 -0.850001 -0.850027 -0.850054 -0.850083 -0.850112 -0.850141 -0.850171 -0.850201 -0.850231 -0.85026 
21 -0.850001 -0.850027 -0.850054 -0.850083 -0.850112 -0.850141 -0.850171 -0.850201 -0.850231 -0.85026 
22 -0.850001 -0.850027 -0.850054 -0.850083 -0.850112 -0.850141 -0.850171 -0.850201 -0.850231 -0.85026 
23 -0.850001 -0.850027 -0.850054 -0.850083 -0.850112 -0.850141 -0.850171 -0.850201 -0.850231 -0.85026 
24 -0.850001 -0.850027 -0.850054 -0.850083 -0.850112 -0.850141 -0.850171 -0.850201 -0.850231 -0.85026 
25 -0.850001 -0.850027 -0.850054 -0.850083 -0.850112 -0.850141 -0.850171 -0.850201 -0.850231 -0.85026 
26 -0.850001 -0.850027 -0.850054 -0.850083 -0.850112 -0.850141 -0.850171 -0.850201 -0.850231 -0.85026 
27 -0.850001 -0.850027 -0.850054 -0.850083 -0.850112 -0.850141 -0.850171 -0.850201 -0.850231 -0.85026 
28 -0.850001 -0.850027 -0.850054 -0.850083 -0.850112 -0.850141 -0.850171 -0.850201 -0.850231 -0.85026 
29 -0.850001 -0.850027 -0.850054 -0.850083 -0.850112 -0.850141 -0.850171 -0.850201 -0.850231 -0.85026 
30 -0.850001 -0.850027 -0.850054 -0.850083 -0.850112 -0.850141 -0.850171 -0.850201 -0.850231 -0.85026 
31 -0.850001 -0.850027 -0.850054 -0.850083 -0.850112 -0.850141 -0.850171 -0.850201 -0.850231 -0.85026 
32 -0.850001 -0.850027 -0.850054 -0.850083 -0.850112 -0.850141 -0.850171 -0.850201 -0.850231 -0.85026 
33 -0.850001 -0.850027 -0.850054 -0.850083 -0.850112 -0.850141 -0.850171 -0.850201 -0.850231 -0.85026 
34 -0.850001 -0.850027 -0.850054 -0.850083 -0.850112 -0.850141 -0.850171 -0.850201 -0.850231 -0.85026 
35 -0.850001 -0.850027 -0.850054 -0.850083 -0.850112 -0.850141 -0.850171 -0.850201 -0.850231 -0.85026 
36 -0.850001 -0.850027 -0.850054 -0.850083 -0.850112 -0.850141 -0.850171 -0.850201 -0.850231 -0.85026 
37 -0.850001 -0.850027 -0.850054 -0.850083 -0.850112 -0.850141 -0.850171 -0.850201 -0.850231 -0.85026 
38 -0.850001 -0.850027 -0.850054 -0.850083 -0.850112 -0.850141 -0.850171 -0.850201 -0.850231 -0.85026 
39 -0.850001 -0.850027 -0.850054 -0.850083 -0.850112 -0.850141 -0.850171 -0.850201 -0.850231 -0.85026 
40 -0.850001 -0.850027 -0.850054 -0.850083 -0.850112 -0.850141 -0.850171 -0.850201 -0.850231 -0.85026 
41 -0.850001 -0.850027 -0.850054 -0.850083 -0.850112 -0.850141 -0.850171 -0.850201 -0.850231 -0.85026 
42 -0.850001 -0.850027 -0.850054 -0.850083 -0.850112 -0.850141 -0.850171 -0.850201 -0.850231 -0.85026 
43 -0.850001 -0.850027 -0.850054 -0.850083 -0.850112 -0.850141 -0.850171 -0.850201 -0.850231 -0.85026 
44 -0.850001 -0.850027 -0.850054 -0.850083 -0.850112 -0.850141 -0.850171 -0.850201 -0.850231 -0.85026 
45 -0.850001 -0.850027 -0.850054 -0.850083 -0.850112 -0.850141 -0.850171 -0.850201 -0.850231 -0.85026 
46 -0.850001 -0.850027 -0.850054 -0.850083 -0.850112 -0.850141 -0.850171 -0.850201 -0.850231 -0.85026 
47 -0.850001 -0.850027 -0.850054 -0.850083 -0.850112 -0.850141 -0.850171 -0.850201 -0.850231 -0.85026 
48 -0.850001 -0.850027 -0.850054 -0.850083 -0.850112 -0.850141 -0.850171 -0.850201 -0.850231 -0.85026 
49 -0.850001 -0.850027 -0.850054 -0.850083 -0.850112 -0.850141 -0.850171 -0.850201 -0.850231 -0.85026 
50 -0.850001 -0.850027 -0.850054 -0.850083 -0.850112 -0.850141 -0.850171 -0.850201 -0.850231 -0.85026 
51 -0.850001 -0.850027 -0.850054 -0.850083 -0.850112 -0.850141 -0.850171 -0.850201 -0.850231 -0.85026 
52 -0.850001 -0.850027 -0.850054 -0.850083 -0.850112 -0.850141 -0.850171 -0.850201 -0.850231 -0.85026 
53 -0.850001 -0.850027 -0.850054 -0.850083 -0.850112 -0.850141 -0.850171 -0.850201 -0.850231 -0.85026 
54 -0.850001 -0.850027 -0.850054 -0.850083 -0.850112 -0.850141 -0.850171 -0.850201 -0.850231 -0.85026 
55 -0.850001 -0.850027 -0.850054 -0.850083 -0.850112 -0.850141 -0.850171 -0.850201 -0.850231 -0.85026 
56 -0.850001 -0.850027 -0.850054 -0.850083 -0.850112 -0.850141 -0.850171 -0.850201 -0.850231 -0.85026 
57 -0.850001 -0.850027 -0.850054 -0.850083 -0.850112 -0.850141 -0.850171 -0.850201 -0.850231 -0.85026 
58 -0.850001 -0.850027 -0.850054 -0.850083 -0.850112 -0.850141 -0.850171 -0.850201 -0.850231 -0.85026 
59 -0.850001 -0.850027 -0.850054 -0.850083 -0.850112 -0.850141 -0.850171 -0.850201 -0.850231 -0.85026 
60 -0.850001 -0.850027 -0.850054 -0.850083 -0.850112 -0.850141 -0.850171 -0.850201 -0.850231 -0.85026 
61 -0.850001 -0.850027 -0.850054 -0.850083 -0.850112 -0.850141 -0.850171 -0.850201 -0.850231 -0.85026 
62 -0.850001 -0.850027 -0.850054 -0.850083 -0.850112 -0.850141 -0.850171 -0.850201 -0.850231 -0.85026 
63 -0.850001 -0.850027 -0.850054 -0.850083 -0.850112 -0.850141 -0.850171 -0.850201 -0.850231 -0.85026 
64 -0.850001 -0.850027 -0.850054 -0.850083 -0.850112 -0.850141 -0.850171 -0.850201 -0.850231 -0.85026 
65 -0.850001 -0.850027 -0.850054 -0.850083 -0.850112 -0.850141 -0.850171 -0.850201 -0.850231 -0.85026 
66 -0.850001 -0.850027 -0.850054 -0.850083 -0.850112 -0.850141 -0.850171 -0.850201 -0.850231 -0.85026 
67 -0.850001 -0.850027 -0.850054 -0.850083 -0.850112 -0.850141 -0.850171 -0.850201 -0.850231 -0.85026 
68 -0.850001 -0.850027 -0.850054 -0.850083 -0.850112 -0.850141 -0.850171 -0.850201 -0.850231 -0.85026 
69 -0.850001 -0.850027 -0.850054 -0.850083 -0.850112 -0.850141 -0.850171 -0.850201 -0.850231 -0.85026 
70 -0.850001 -0.850027 -0.850054 -0.850083 -0.850112 -0.850141 -0.850171 -0.850201 -0.850231 -0.85026 
71 -0.850001 -0.850027 -0.850054 -0.850083 -0.850112 -0.850141 -0.850171 -0.850201 -0.850231 -0.85026 
72 -0.850001 -0.850027 -0.850054 -0.850083 -0.850112 -0.850141 -0.850171 -0.850201 -0.850231 -0.85026 
73 -0.850001 -0.850027 -0.850054 -0.850083 -0.850112 -0.850141 -0.850171 -0.850201 -0.850231 -0.85026 
74 -0.850001 -0.850027 -0.850054 -0.850083 -0.850112 -0.850141 -0.850171 -0.850201 -0.850231 -0.85026 
75 -0.850001 -0.850027 -0.850054 -0.850083 -0.850112 -0.850141 -0.850171 -0.850201 -0.850231 -0.85026 
76 -0.850001 -0.850027 -0.850054 -0.850083 -0.850112 -0.850141 -0.850171 -0.850201 -0.850231 -0.85026 
77 -0.850001 -0.850027 -0.850054 -0.850083 -0.850112 -0.850141 -0.850171 -0.850201 -0.850231 -0.85026 
78 -0.850001 -0.850027 -0.850054 -0.850083 -0.850112 -0.850141 -0.850171 -0.850201 -0.850231 -0.85026 
79 -0.850001 -0.850027 -0.850054 -0.850083 -0.850112 -0.850141 -0.850171 -0.850201 -0.850231 -0.85026 
80 -0.850001 -0.850027 -0.850054 -0.850083 -0.850112 -0.850141 -0.850171 -0.850201 -0.850231 -0.85026 
81 -0.850001 -0.850027 -0.850054 -0.850083 -0.850112 -0.850141 -0.850171 -0.850201 -0.850231 -0.85026 
82 -0.850001 -0.850027 -0.850054 -0.850083 -0.850112 -0.850141 -0.850171 -0.850201 -0.850231 -0.85026 
83 -0.850001 -0.850027 -0.850054 -0.850083 -0.850112 -0.850141 -0.850171 -0.850201 -0.850231 -0.85026 
84 -0.850001 -0.850027 -0.850054 -0.850083 -0.850112 -0.850141 -0.850171 -0.850201 -0.850231 -0.85026 
85 -0.850001 -0.850027 -0.850054 -0.850083 -0.850112 -0.850141 -0.850171 -0.850201 -0.850231 -0.85026 
86 -0.850001 -0.850027 -0.850054 -0.850083 -0.850112 -0.850141 -0.850171 -0.850201 -0.850231 -0.85026 
87 -0.850001 -0.850027 -0.850054 -0.850083 -0.850112 -0.850141 -0.850171 -0.850201 -0.850231 -0.85026 
88 -0.850001 -0.850027 -0.850054 -0.850083 -0.850112 -0.850141 -0.850171 -0.850201 -0.850231 -0.85026 
89 -0.850002 -0.850028 -0.850055 -0.850083 -0.850112 -0.850142 -0.850172 -0.850202 -0.850231 -0.850261 
90 -0.850001 -0.850027 -0.850054 -0.850083 -0.850112 -0.850141 -0.850171 -0.850201 -0.850231 -0.85026 
91 -0.850001 -0.850028 -0.850055 -0.850083 -0.850112 -0.850142 -0.850171 -0.850201 -0.850231 -0.85026 
92 -0.850001 -0.850027 -0.850055 -0.850083 -0.850112 -0.850141 -0.850171 -0.850201 -0.850231 -0.85026 
93 -0.850002 -0.850028 -0.850055 -0.850083 -0.850112 -0.850142 -0.850172 -0.850202 -0.850231 -0.85026 
94 -0.850001 -0.850027 -0.850054 -0.850083 -0.850112 -0.850141 -0.850171 -0.850201 -0.850231 -0.85026 
95 -0.850004 -0.85003 -0.850057 -0.850085 -0.850114 -0.850144 -0.850173 -0.850203 -0.850233 -0.850262 
96 -0.850001 -0.850027 -0.850054 -0.850082 -0.850111 -0.850141 -0.850171 -0.850201 -0.850231 -0.85026 
97 -0.850002 -0.850028 -0.850055 -0.850083 -0.850112 -0.850142 -0.850172 -0.850201 -0.850231 -0.85026 
98 -0.850001 -0.850027 -0.850054 -0.850083 -0.850112 -0.850141 -0.850171 -0.850201 -0.850231 -0.85026 
99 -0.849999 -0.850026 -0.850053 -0.850082 -0.850112 -0.850142 -0.850172 -0.850202 -0.850232 -0.850262 
100 -0.850009 -0.850034 -0.850061 -0.850089 -0.850118 -0.850147 -0.850176 -0.850206 -0.850235 -0.850264 
101 -0.85 -0.850026 -0.850053 -0.850081 -0.850111 -0.85014 -0.85017 -0.8502 -0.85023 -0.850259 
102 -0.850001 -0.850027 -0.850054 -0.850083 -0.850112 -0.850142 -0.850172 -0.850202 -0.850232 -0.850261 
103 -0.850001 -0.850027 -0.850055 -0.850083 -0.850112 -0.850141 -0.850171 -0.850201 -0.850231 -0.85026 
104 -0.850009 -0.850035 -0.850063 -0.850091 -0.85012 -0.850149 -0.850179 -0.850209 -0.850238 -0.850268 
105 -0.849998 -0.850024 -0.850051 -0.850079 -0.850107 -0.850137 -0.850166 -0.850196 -0.850226 -0.850255 
106 -0.850002 -0.850028 -0.850055 -0.850083 -0.850112 -0.850142 -0.850172 -0.850202 -0.850231 -0.850261 
107 -0.850001 -0.850027 -0.850054 -0.850083 -0.850112 -0.850141 -0.850171 -0.850201 -0.850231 -0.85026 
108 -0.850001 -0.850027 -0.850055 -0.850083 -0.850112 -0.850142 -0.850172 -0.850202 -0.850232 -0.850261 
109 -0.849996 -0.850022 -0.85005 -0.850079 -0.850108 -0.850138 -0.850168 -0.850198 -0.850228 -0.850257 
110 -0.849914 -0.849941 -0.84997 -0.849999 -0.85003 -0.850061 -0.850093 -0.850125 -0.850157 -0.850189 
111 -0.849977 -0.850006 -0.850036 -0.850067 -0.850098 -0.85013 -0.850162 -0.850194 -0.850226 -0.850257 
112 -0.850002 -0.850028 -0.850055 -0.850083 -0.850112 -0.850142 -0.850171 -0.850201 -0.850231 -0.85026 
113 -0.850001 -0.850027 -0.850054 -0.850083 -0.850112 -0.850141 -0.850171 -0.850201 -0.850231 -0.85026 
114 -0.849977 -0.850002 -0.85003 -0.850058 -0.850087 -0.850116 -0.850146 -0.850177 -0.850207 -0.850236 
115 -0.850086 -0.850107 -0.850129 -0.850152 -0.850176 -0.850201 -0.850225 -0.85025 -0.850275 -0.8503 
116 -0.85 -0.850027 -0.850055 -0.850084 -0.850113 -0.850144 -0.850174 -0.850205 -0.850235 -0.850265 
117 -0.849802 -0.84984 -0.849878 -0.849917 -0.849957 -0.849998 -0.850038 -0.850079 -0.850119 -0.850159 
118 -0.850077 -0.850092 -0.850109 -0.850127 -0.850146 -0.850167 -0.850188 -0.85021 -0.850232 -0.850255 
119 -0.849972 -0.84999 -0.850009 -0.85003 -0.850052 -0.850075 -0.850099 -0.850124 -0.850148 -0.850173 
120 -0.84949 -0.849512 -0.849538 -0.849566 -0.849596 -0.849628 -0.849662 -0.849698 -0.849734 -0.849771 
121 -0.850669 -0.850704 -0.850739 -0.850772 -0.850804 -0.850835 -0.850864 -0.850891 -0.850916 -0.850939 
122 -0.850091 -0.850093 -0.850097 -0.850102 -0.85011 -0.850119 -0.850129 -0.850141 -0.850153 -0.850166 
123 -0.850151 -0.850174 -0.850199 -0.850225 -0.850252 -0.850278 -0.850306 -0.850333 -0.850359 -0.850385 
124 -0.84978 -0.849813 -0.849846 -0.849881 -0.849916 -0.849952 -0.849989 -0.850025 -0.850061 -0.850097 
125 -0.851797 -0.851801 -0.851802 -0.851802 -0.851799 -0.851794 -0.851786 -0.851775 -0.85176 -0.851743 
126 -0.850001 -0.850027 -0.850054 -0.850083 -0.850112 -0.850141 -0.850171 -0.850201 -0.850231 -0.85026 
127 -0.849134 -0.849196 -0.84926 -0.849327 -0.849396 -0.849466 -0.849538 -0.84961 -0.849683 -0.849756 
128 -0.849634 -0.849668 -0.849703 -0.849739 -0.849776 -0.849814 -0.849853 -0.849891 -0.849929 -0.849967 
129 -0.849248 -0.849237 -0.84923 -0.849227 -0.849229 -0.849235 -0.849245 -0.849259 -0.849276 -0.849296 
130 -0.85193 -0.851887 -0.851843 -0.851799 -0.851754 -0.851708 -0.851661 -0.851613 -0.851564 -0.851514 
131 -0.850711 -0.850753 -0.850795 -0.850835 -0.850874 -0.850911 -0.850947 -0.85098 -0.851011 -0.851039 
132 -0.850168 -0.850259 -0.850348 -0.850435 -0.850519 -0.8506 -0.850679 -0.850754 -0.850825 -0.850892 
133 -0.8491 -0.849053 -0.84901 -0.84897 -0.848933 -0.8489 -0.848871 -0.848845 -0.848823 -0.848803 
134 -0.849984 -0.850035 -0.850088 -0.850141 -0.850194 -0.850248 -0.850301 -0.850354 -0.850406 -0.850458 
135 -0.847443 -0.847536 -0.847633 -0.847733 -0.847836 -0.847942 -0.84805 -0.848161 -0.848273 -0.848386 
136 -0.850001 -0.850027 -0.850054 -0.850083 -0.850112 -0.850141 -0.850171 -0.850201 -0.850231 -0.85026 
137 -0.849989 -0.850015 -0.850043 -0.850071 -0.850101 -0.850131 -0.850161 -0.850192 -0.850222 -0.850251 
138 -0.852954 -0.853154 -0.853358 -0.853566 -0.853776 -0.853989 -0.854202 -0.854416 -0.85463 -0.854842 
139 -0.845701 -0.845596 -0.845489 -0.845382 -0.845275 -0.845168 -0.845062 -0.844956 -0.84485 -0.844746 
140 -0.850073 -0.85009 -0.850107 -0.850126 -0.850146 -0.850167 -0.850189 -0.850211 -0.850234 -0.850256 
141 -0.853853 -0.853835 -0.853814 -0.853792 -0.853767 -0.853739 -0.853707 -0.853672 -0.853632 -0.853588 
142 -0.843788 -0.843954 -0.844127 -0.844306 -0.844491 -0.844682 -0.844878 -0.845078 -0.845283 -0.845492 
143 -0.854202 -0.854134 -0.854065 -0.853994 -0.853921 -0.853846 -0.853769 -0.853689 -0.853607 -0.853522 
144 -0.849388 -0.849328 -0.849265 -0.849202 -0.849137 -0.849072 -0.849007 -0.848941 -0.848876 -0.848811 
145 -0.845359 -0.845511 -0.845666 -0.845825 -0.845987 -0.846152 -0.846319 -0.846489 -0.846659 -0.846831 
146 -0.855987 -0.85609 -0.85619 -0.856286 -0.856379 -0.856467 -0.856551 -0.856629 -0.856701 -0.856767 
147 -0.85112 -0.851018 -0.850921 -0.850828 -0.850739 -0.850655 -0.850574 -0.850497 -0.850424 -0.850355 
148 -0.849847 -0.850002 -0.850155 -0.850305 -0.850452 -0.850595 -0.850734 -0.850869 -0.850999 -0.851124 
149 -0.854912 -0.854992 -0.855077 -0.855166 -0.855258 -0.855353 -0.855452 -0.855553 -0.855656 -0.855761 
150 -0.860602 -0.86048 -0.860352 -0.860217 -0.860075 -0.859926 -0.859771 -0.859608 -0.859437 -0.85926 
151 -0.844946 -0.844981 -0.845018 -0.845056 -0.845095 -0.845135 -0.845175 -0.845216 -0.845258 -0.845299 
152 -0.850568 -0.850574 -0.85058 -0.850587 -0.850594 -0.850601 -0.850609 -0.850616 -0.850624 -0.85063 
153 -0.85257 -0.852676 -0.852775 -0.852869 -0.852957 -0.853037 -0.853111 -0.853178 -0.853237 -0.853288 
154 -0.847538 -0.847503 -0.84746 -0.847409 -0.84735 -0.847282 -0.847205 -0.84712 -0.847025 -0.846922 
155 -0.836877 -0.836787 -0.836705 -0.83663 -0.836562 -0.836502 -0.83645 -0.836406 -0.836369 -0.83634 
156 -0.856246 -0.856309 -0.856373 -0.856438 -0.856503 -0.856567 -0.856631 -0.856693 -0.856754 -0.856813 
157 -0.859016 -0.859198 -0.859387 -0.859584 -0.859787 -0.859998 -0.860215 -0.860437 -0.860664 -0.860896 
158 -0.833886 -0.833944 -0.834013 -0.834093 -0.834185 -0.834288 -0.834403 -0.834528 -0.834664 -0.834812 
159 -0.849978 -0.850003 -0.85003 -0.850057 -0.850086 -0.850115 -0.850144 -0.850174 -0.850204 -0.850233 
160 -0.861257 -0.861288 -0.861321 -0.861357 -0.861395 -0.861436 -0.861479 -0.861524 -0.861571 -0.861621 
161 -0.83435 -0.834308 -0.834264 -0.834216 -0.834166 -0.834112 -0.834055 -0.833995 -0.833931 -0.833864 
162 -0.847809 -0.847904 -0.847993 -0.848076 -0.848151 -0.848219 -0.84828 -0.848331 -0.848374 -0.848409 
163 -0.832191 -0.832019 -0.831854 -0.831697 -0.831546 -0.831403 -0.831268 -0.831141 -0.831021 -0.83091 
164 -0.856999 -0.857092 -0.857185 -0.857278 -0.857372 -0.857465 -0.857557 -0.857649 -0.857739 -0.857828 
165 -0.860313 -0.860481 -0.860655 -0.860834 -0.861016 -0.861201 -0.861389 -0.861578 -0.861768 -0.861957 
166 -0.830345 -0.830237 -0.83013 -0.830026 -0.829925 -0.829825 -0.829728 -0.829634 -0.829542 -0.829452 
167 -0.853184 -0.853297 -0.853409 -0.853518 -0.853624 -0.853727 -0.853827 -0.853922 -0.854012 -0.854096 
168 -0.838453 -0.8385 -0.838542 -0.838578 -0.838609 -0.838634 -0.838653 -0.838664 -0.838669 -0.838666 
169 -0.862063 -0.862247 -0.862439 -0.86264 -0.862849 -0.863066 -0.863291 -0.863524 -0.863766 -0.864015 
170 -0.861842 -0.861927 -0.862018 -0.862115 -0.862218 -0.862326 -0.862439 -0.862558 -0.862682 -0.862812 
171 -0.86254 -0.862664 -0.862791 -0.862921 -0.863054 -0.863189 -0.863326 -0.863463 -0.863601 -0.863738 
172 -0.836367 -0.836315 -0.836266 -0.836218 -0.836173 -0.83613 -0.836088 -0.836048 -0.836009 -0.835972 
173 -0.850001 -0.850027 -0.850054 -0.850083 -0.850112 -0.850141 -0.850171 -0.850201 -0.850231 -0.85026 
174 -0.861758 -0.861799 -0.86183 -0.86185 -0.861858 -0.861854 -0.861839 -0.861811 -0.861771 -0.861719 
175 -0.870636 -0.870696 -0.870754 -0.870808 -0.870859 -0.870908 -0.870954 -0.870997 -0.871039 -0.871079 
176 -0.841437 -0.841421 -0.841403 -0.841384 -0.841363 -0.84134 -0.841315 -0.841289 -0.84126 -0.84123 
177 -0.830195 -0.830262 -0.830334 -0.83041 -0.830488 -0.830568 -0.83065 -0.830734 -0.830817 -0.8309 
178 -0.869578 -0.869601 -0.869613 -0.869616 -0.869609 -0.869593 -0.869566 -0.869531 -0.869487 -0.869435 
179 -0.850001 -0.850027 -0.850054 -0.850083 -0.850112 -0.850141 -0.850171 -0.850201 -0.850231 -0.85026 
180 -0.848389 -0.848319 -0.848236 -0.848142 -0.848036 -0.847918 -0.84779 -0.84765 -0.847501 -0.847342 
181 -0.870966 -0.871062 -0.871162 -0.871266 -0.871373 -0.871483 -0.871595 -0.87171 -0.871826 -0.871944 
182 -0.823292 -0.82332 -0.823357 -0.823402 -0.823456 -0.823519 -0.823589 -0.823668 -0.823754 -0.823848 
183 -0.833544 -0.833457 -0.833366 -0.833272 -0.833173 -0.83307 -0.832963 -0.832853 -0.832739 -0.832622 
184 -0.831945 -0.832019 -0.832095 -0.832171 -0.832247 -0.832323 -0.832398 -0.832472 -0.832545 -0.832615 
185 -0.874461 -0.874476 -0.874491 -0.874505 -0.874519 -0.874534 -0.874551 -0.874568 -0.874587 -0.874607 
186 -0.88683 -0.886773 -0.886699 -0.886609 -0.886501 -0.886376 -0.886236 -0.886079 -0.885908 -0.885723 
187 -0.830075 -0.830193 -0.830318 -0.830451 -0.83059 -0.830734 -0.830882 -0.831034 -0.831188 -0.831343 
188 -0.859038 -0.858872 -0.858692 -0.858499 -0.858295 -0.858079 -0.857853 -0.857619 -0.857377 -0.857128 
189 -0.882899 -0.882739 -0.88256 -0.882364 -0.88215 -0.88192 -0.881675 -0.881415 -0.881143 -0.88086 
190 -0.847296 -0.847401 -0.847507 -0.847615 -0.847725 -0.847835 -0.847946 -0.848057 -0.848168 -0.848278 
191 -0.850001 -0.850027 -0.850054 -0.850083 -0.850112 -0.850141 -0.850171 -0.850201 -0.850231 -0.85026 
192 -0.803188 -0.803049 -0.80291 -0.802769 -0.802629 -0.802489 -0.802351 -0.802216 -0.802084 -0.801956 
193 -0.850001 -0.850027 -0.850054 -0.850083 -0.850112 -0.850141 -0.850171 -0.850201 -0.850231 -0.85026 
194 -0.858567 -0.858724 -0.858891 -0.859069 -0.859257 -0.859454 -0.85966 -0.859874 -0.860095 -0.860323 
195 -0.846369 -0.846215 -0.846056 -0.845893 -0.845727 -0.84556 -0.845393 -0.845228 -0.845067 -0.844912 
196 -0.839312 -0.839195 -0.83908 -0.838966 -0.838854 -0.838744 -0.838634 -0.838526 -0.838419 -0.838313 
197 -0.849363 -0.849466 -0.849569 -0.849671 -0.849772 -0.849871 -0.849968 -0.850062 -0.850154 -0.850243 
198 -0.850001 -0.850027 -0.850054 -0.850083 -0.850112 -0.850141 -0.850171 -0.850201 -0.850231 -0.85026 
199 -0.787676 -0.787646 -0.787633 -0.78764 -0.787666 -0.787711 -0.787776 -0.787861 -0.787966 -0.788089 
200 -0.824995 -0.824859 -0.824721 -0.824581 -0.824442 -0.824305 -0.82417 -0.82404 -0.823916 -0.8238 
201 -0.900755 -0.900563 -0.900356 -0.900136 -0.899905 -0.899663 -0.899412 -0.899153 -0.898888 -0.89862 
202 -0.850001 -0.850027 -0.850054 -0.850083 -0.850112 -0.850141 -0.850171 -0.850201 -0.850231 -0.85026 
203 -0.866784 -0.866843 -0.866909 -0.86698 -0.867057 -0.867138 -0.867222 -0.867308 -0.867394 -0.867481 
204 -0.856775 -0.856869 -0.856959 -0.857045 -0.857126 -0.857201 -0.857271 -0.857334 -0.85739 -0.857439 
205 -0.893912 -0.89383 -0.89373 -0.893612 -0.893476 -0.893324 -0.893155 -0.892972 -0.892774 -0.892564 
206 -0.850001 -0.850027 -0.850054 -0.850083 -0.850112 -0.850141 -0.850171 -0.850201 -0.850231 -0.85026 
207 -0.766614 -0.76652 -0.766434 -0.766357 -0.76629 -0.766235 -0.766191 -0.766161 -0.766146 -0.766146 
208 -0.850786 -0.85063 -0.850474 -0.850319 -0.850168 -0.850022 -0.849882 -0.849752 -0.849633 -0.849527 
209 -0.88857 -0.888535 -0.888489 -0.888432 -0.888364 -0.888286 -0.888198 -0.888103 -0.888 -0.887891 
210 -0.909029 -0.908865 -0.908699 -0.908531 -0.908365 -0.9082 -0.90804 -0.907884 -0.907736 -0.907598 
211 -0.850001 -0.850027 -0.850054 -0.850083 -0.850112 -0.850141 -0.850171 -0.850201 -0.850231 -0.85026 
212 -0.850001 -0.850027 -0.850054 -0.850083 -0.850112 -0.850141 -0.850171 -0.850201 -0.850231 -0.85026 
213 -0.840932 -0.840749 -0.840558 -0.84036 -0.840154 -0.839939 -0.839715 -0.839483 -0.83924 -0.838988 
214 -0.752971 -0.752915 -0.752874 -0.75285 -0.752845 -0.752858 -0.752891 -0.752944 -0.753018 -0.753114 
215 -0.783321 -0.783262 -0.783207 -0.783155 -0.783109 -0.783071 -0.783043 -0.783026 -0.783023 -0.783034 
216 -0.793638 -0.79356 -0.793478 -0.793393 -0.793306 -0.793219 -0.793134 -0.793053 -0.792977 -0.792908 
217 -0.861577 -0.861692 -0.861806 -0.861918 -0.862026 -0.862131 -0.862231 -0.862327 -0.862417 -0.862501 
218 -0.831603 -0.831557 -0.831515 -0.831479 -0.831452 -0.831434 -0.83143 -0.83144 -0.831466 -0.831512 
219 -0.849985 -0.850011 -0.850038 -0.850065 -0.850094 -0.850123 -0.850153 -0.850183 -0.850212 -0.850241 
220 -0.942419 -0.942282 -0.942141 -0.941996 -0.941848 -0.941698 -0.941548 -0.941398 -0.941251 -0.941106 
221 -0.777526 -0.777501 -0.777485 -0.777477 -0.777481 -0.777497 -0.777527 -0.777572 -0.777634 -0.777715 
222 -0.721766 -0.721724 -0.721691 -0.721668 -0.721658 -0.721664 -0.721687 -0.721731 -0.721796 -0.721887 
223 -0.894755 -0.894703 -0.894649 -0.894592 -0.894534 -0.894477 -0.894421 -0.894367 -0.894316 -0.89427 
224 -0.917291 -0.917151 -0.916996 -0.916828 -0.916646 -0.916452 -0.916246 -0.916029 -0.915801 -0.915565 
225 -0.831378 -0.831485 -0.831594 -0.831704 -0.831813 -0.83192 -0.832023 -0.832121 -0.832212 -0.832295 
226 -0.794734 -0.794754 -0.794795 -0.79486 -0.794949 -0.795063 -0.7952 -0.795362 -0.795547 -0.795755 
227 -0.877563 -0.877587 -0.877614 -0.877643 -0.877676 -0.877714 -0.877758 -0.87781 -0.877871 -0.877941 
228 -0.819428 -0.819554 -0.819696 -0.819851 -0.820019 -0.820199 -0.82039 -0.82059 -0.820798 -0.821011 
229 -0.850001 -0.850027 -0.850054 -0.850083 -0.850112 -0.850141 -0.850171 -0.850201 -0.850231 -0.85026 
230 -0.850001 -0.850027 -0.850054 -0.850083 -0.850112 -0.850141 -0.850171 -0.850201 -0.850231 -0.85026 
231 -0.850001 -0.850027 -0.850054 -0.850083 -0.850112 -0.850141 -0.850171 -0.850201 -0.850231 -0.85026 
232 -1.08197 -1.08192 -1.08188 -1.08185 -1.08183 -1.08183 -1.08183 -1.08186 -1.0819 -1.08196 
233 -0.850001 -0.850027 -0.850054 -0.850083 -0.850112 -0.850141 -0.850171 -0.850201 -0.850231 -0.85026 
234 -0.976378 -0.976281 -0.976182 -0.976082 -0.975982 -0.975882 -0.975783 -0.975687 -0.975594 -0.975504 
235 -0.629739 -0.629889 -0.630042 -0.630201 -0.630365 -0.630535 -0.630712 -0.630898 -0.631092 -0.631297 
236 -0.909034 -0.908908 -0.908765 -0.908605 -0.908428 -0.908234 -0.908024 -0.907799 -0.90756 -0.907308 
237 -1.09765 -1.09763 -1.09763 -1.09763 -1.09765 -1.09768 -1.09772 -1.09777 -1.09784 -1.09793 
238 -0.850086 -0.850107 -0.85013 -0.850154 -0.850179 -0.850204 -0.85023 -0.850256 -0.850282 -0.850307 
239 -0.691607 -0.691808 -0.69201 -0.692212 -0.692413 -0.692615 -0.692817 -0.69302 -0.693224 -0.693429 
240 -0.753554 -0.753546 -0.753556 -0.753586 -0.753637 -0.753708 -0.753802 -0.753919 -0.754059 -0.754223 
241 -0.716103 -0.716123 -0.716156 -0.716202 -0.716264 -0.716341 -0.716436 -0.716548 -0.716679 -0.71683 
242 -0.850001 -0.850027 -0.850054 -0.850083 -0.850112 -0.850141 -0.850171 -0.850201 -0.850231 -0.85026 
243 -0.98342 -0.98332 -0.983217 -0.983111 -0.983003 -0.982893 -0.982781 -0.982668 -0.982554 -0.98244 
244 -1.11218 -1.11216 -1.11215 -1.11214 -1.11213 -1.11213 -1.11213 -1.11213 -1.11215 -1.11217 
245 -0.504369 -0.504562 -0.504764 -0.504974 -0.505192 -0.505418 -0.505654 -0.505898 -0.506151 -0.506414 
246 -1.04522 -1.04519 -1.04516 -1.04512 -1.04508 -1.04504 -1.04499 -1.04495 -1.04491 -1.04486 
247 -0.83638 -0.836356 -0.836343 -0.836341 -0.83635 -0.83637 -0.836402 -0.836444 -0.836497 -0.836561 
248 -0.850001 -0.850027 -0.850054 -0.850083 -0.850112 -0.850141 -0.850171 -0.850201 -0.850231 -0.85026 
249 -0.592177 -0.592295 -0.592425 -0.592568 -0.592724 -0.592894 -0.593079 -0.59328 -0.593497 -0.593732 
250 -0.808229 -0.808296 -0.808385 -0.808497 -0.808631 -0.808787 -0.808965 -0.809162 -0.809379 -0.809612 
251 -0.761221 -0.76124 -0.761284 -0.761353 -0.761449 -0.761571 -0.76172 -0.761896 -0.762099 -0.762328 
252 -0.728208 -0.728257 -0.728318 -0.728392 -0.728481 -0.728585 -0.728705 -0.728841 -0.728995 -0.729166 
253 -0.850001 -0.850027 -0.850054 -0.850083 -0.850112 -0.850141 -0.850171 -0.850201 -0.850231 -0.85026 
254 -0.880026 -0.879937 -0.879842 -0.879743 -0.87964 -0.879533 -0.879425 -0.879316 -0.879207 -0.879099 
255 -0.850001 -0.850027 -0.850054 -0.850083 -0.850112 -0.850141 -0.850171 -0.850201 -0.850231 -0.85026 
256 -0.8614 -0.861575 -0.861756 -0.861942 -0.862132 -0.862327 -0.862527 -0.86273 -0.862938 -0.863149 
257 -1.04533 -1.04538 -1.04544 -1.04548 -1.04552 -1.04555 -1.04557 -1.04558 -1.04559 -1.04559 
258 -0.823573 -0.823743 -0.823923 -0.824112 -0.824308 -0.824507 -0.82471 -0.824912 -0.825112 -0.825307 
259 -0.866549 -0.86657 -0.866598 -0.866634 -0.866677 -0.866729 -0.866787 -0.866853 -0.866926 -0.867006 
260 -0.616445 -0.616543 -0.616654 -0.616778 -0.616915 -0.617065 -0.617227 -0.617402 -0.617589 -0.617788 
261 -0.991068 -0.991036 -0.991003 -0.990969 -0.990934 -0.990897 -0.990859 -0.990819 -0.990776 -0.990732 
262 -1.02468 -1.02468 -1.02468 -1.02468 -1.02468 -1.02467 -1.02466 -1.02465 -1.02463 -1.02462 
263 -0.850002 -0.850028 -0.850055 -0.850083 -0.850112 -0.850142 -0.850172 -0.850201 -0.850231 -0.85026 
264 -0.838554 -0.83858 -0.838598 -0.838606 -0.838604 -0.838591 -0.838567 -0.838531 -0.838485 -0.838428 
265 -0.700933 -0.700977 -0.701035 -0.701108 -0.701197 -0.701302 -0.701425 -0.701565 -0.701723 -0.7019 
266 -0.660783 -0.660886 -0.661 -0.661124 -0.661259 -0.661405 -0.661561 -0.661729 -0.661908 -0.662099 
267 -0.907821 -0.907758 -0.907693 -0.907625 -0.907554 -0.907479 -0.9074 -0.907315 -0.907225 -0.90713 
268 -0.84768 -0.847461 -0.847229 -0.846984 -0.846725 -0.846455 -0.846173 -0.84588 -0.845577 -0.845264 
269 -0.850001 -0.850027 -0.850054 -0.850083 -0.850112 -0.850141 -0.850171 -0.850201 -0.850231 -0.85026 
270 -1.00504 -1.0051 -1.00516 -1.00522 -1.00528 -1.00534 -1.0054 -1.00547 -1.00553 -1.00559 
271 -0.963626 -0.963604 -0.963584 -0.963567 -0.963552 -0.963538 -0.963525 -0.963512 -0.963499 -0.963486 
272 -0.68437 -0.684383 -0.684404 -0.684436 -0.684478 -0.684532 -0.684597 -0.684675 -0.684765 -0.684867 
273 -0.766913 -0.766895 -0.766897 -0.766921 -0.766969 -0.767043 -0.767143 -0.767272 -0.767429 -0.767614 
274 -0.726735 -0.726772 -0.726825 -0.726893 -0.726978 -0.727079 -0.727198 -0.727334 -0.727488 -0.727659 
275 -0.850153 -0.850184 -0.850215 -0.850246 -0.850278 -0.85031 -0.850341 -0.850372 -0.850402 -0.850431 
276 -0.976774 -0.976819 -0.976864 -0.976908 -0.976952 -0.976994 -0.977034 -0.977073 -0.977108 -0.97714 
277 -0.850001 -0.850027 -0.850054 -0.850083 -0.850112 -0.850141 -0.850171 -0.850201 -0.850231 -0.85026 
278 -0.70853 -0.708595 -0.708674 -0.708767 -0.708873 -0.708992 -0.709123 -0.709267 -0.709421 -0.709586 
279 -0.757048 -0.757065 -0.757101 -0.757158 -0.757238 -0.75734 -0.757464 -0.757612 -0.757783 -0.757977 
280 -0.934332 -0.934318 -0.934308 -0.934302 -0.9343 -0.934299 -0.9343 -0.934302 -0.934303 -0.934302 
281 -0.816324 -0.81641 -0.816506 -0.816613 -0.816731 -0.816861 -0.817002 -0.817156 -0.81732 -0.817496 
282 -0.937469 -0.937493 -0.93753 -0.93758 -0.937642 -0.937714 -0.937796 -0.937887 -0.937984 -0.938087 
283 -0.893025 -0.892981 -0.892935 -0.892886 -0.892834 -0.892779 -0.892718 -0.892653 -0.892581 -0.892504 
284 -0.791965 -0.791986 -0.792023 -0.792081 -0.792159 -0.792259 -0.792382 -0.792528 -0.792697 -0.79289 
285 -0.742662 -0.742641 -0.7426 -0.742543 -0.742473 -0.742395 -0.742311 -0.742226 -0.742142 -0.742063 
286 -0.850001 -0.850027 -0.850054 -0.850083 -0.850112 -0.850141 -0.850171 -0.850201 -0.850231 -0.85026 
287 -0.775068 -0.775211 -0.775366 -0.775532 -0.775709 -0.775896 -0.776094 -0.776301 -0.776517 -0.776741 
288 -0.924928 -0.924969 -0.925017 -0.925071 -0.925131 -0.925194 -0.925261 -0.925329 -0.925399 -0.925468 