VARIABLES = "Cell" "Mode 0" "Mode 1" "Mode 2" "Mode 3" "Mode 4" "Mode 5" "Mode 6" "Mode 7" "Mode 8" "Mode 9" 
ZONE T = Iteration69
0 -0.853011 -0.853063 -0.85312 -0.853184 -0.853254 -0.853332 -0.853417 -0.853508 -0.853605 -0.853708 
1 -0.853011 -0.853063 -0.85312 -0.853184 -0.853254 -0.853332 -0.853417 -0.853508 -0.853605 -0.853708 
2 -0.853011 -0.853063 -0.85312 -0.853184 -0.853254 -0.853332 -0.853417 -0.853508 -0.853605 -0.853708 
3 -0.853011 -0.853063 -0.85312 -0.853184 -0.853254 -0.853332 -0.853417 -0.853508 -0.853605 -0.853708 
4 -0.853011 -0.853063 -0.85312 -0.853184 -0.853254 -0.853332 -0.853417 -0.853508 -0.853605 -0.853708 
5 -0.853011 -0.853063 -0.85312 -0.853184 -0.853254 -0.853332 -0.853417 -0.853508 -0.853605 -0.853708 
6 -0.853011 -0.853063 -0.85312 -0.853184 -0.853254 -0.853332 -0.853417 -0.853508 -0.853605 -0.853708 
7 -0.853011 -0.853063 -0.85312 -0.853184 -0.853254 -0.853332 -0.853417 -0.853508 -0.853605 -0.853708 
8 -0.853011 -0.853063 -0.85312 -0.853184 -0.853254 -0.853332 -0.853417 -0.853508 -0.853605 -0.853708 
9 -0.853011 -0.853063 -0.85312 -0.853184 -0.853254 -0.853332 -0.853417 -0.853508 -0.853605 -0.853708 
10 -0.853011 -0.853063 -0.85312 -0.853184 -0.853254 -0.853332 -0.853417 -0.853508 -0.853605 -0.853708 
11 -0.853011 -0.853063 -0.85312 -0.853184 -0.853254 -0.853332 -0.853417 -0.853508 -0.853605 -0.853708 
12 -0.853011 -0.853063 -0.85312 -0.853184 -0.853254 -0.853332 -0.853417 -0.853508 -0.853605 -0.853708 
13 -0.853011 -0.853063 -0.85312 -0.853184 -0.853254 -0.853332 -0.853417 -0.853508 -0.853605 -0.853708 
14 -0.853011 -0.853063 -0.85312 -0.853184 -0.853254 -0.853332 -0.853417 -0.853508 -0.853605 -0.853708 
15 -0.853011 -0.853063 -0.85312 -0.853184 -0.853254 -0.853332 -0.853417 -0.853508 -0.853605 -0.853708 
16 -0.853011 -0.853063 -0.85312 -0.853184 -0.853254 -0.853332 -0.853417 -0.853508 -0.853605 -0.853708 
17 -0.853011 -0.853063 -0.85312 -0.853184 -0.853254 -0.853332 -0.853417 -0.853508 -0.853605 -0.853708 
18 -0.853011 -0.853063 -0.85312 -0.853184 -0.853254 -0.853332 -0.853417 -0.853508 -0.853605 -0.853708 
19 -0.853011 -0.853063 -0.85312 -0.853184 -0.853254 -0.853332 -0.853417 -0.853508 -0.853605 -0.853708 
20 -0.853011 -0.853063 -0.85312 -0.853184 -0.853254 -0.853332 -0.853417 -0.853508 -0.853605 -0.853708 
21 -0.853011 -0.853063 -0.85312 -0.853184 -0.853254 -0.853332 -0.853417 -0.853508 -0.853605 -0.853708 
22 -0.853011 -0.853063 -0.85312 -0.853184 -0.853254 -0.853332 -0.853417 -0.853508 -0.853605 -0.853708 
23 -0.853011 -0.853063 -0.85312 -0.853184 -0.853254 -0.853332 -0.853417 -0.853508 -0.853605 -0.853708 
24 -0.853011 -0.853063 -0.85312 -0.853184 -0.853254 -0.853332 -0.853417 -0.853508 -0.853605 -0.853708 
25 -0.853011 -0.853063 -0.85312 -0.853184 -0.853254 -0.853332 -0.853417 -0.853508 -0.853605 -0.853708 
26 -0.853011 -0.853063 -0.85312 -0.853184 -0.853254 -0.853332 -0.853417 -0.853508 -0.853605 -0.853708 
27 -0.853011 -0.853063 -0.85312 -0.853184 -0.853254 -0.853332 -0.853417 -0.853508 -0.853605 -0.853708 
28 -0.853011 -0.853063 -0.85312 -0.853184 -0.853254 -0.853332 -0.853417 -0.853508 -0.853605 -0.853708 
29 -0.853011 -0.853063 -0.85312 -0.853184 -0.853254 -0.853332 -0.853417 -0.853508 -0.853605 -0.853708 
30 -0.853011 -0.853063 -0.85312 -0.853184 -0.853254 -0.853332 -0.853417 -0.853508 -0.853605 -0.853708 
31 -0.853011 -0.853063 -0.85312 -0.853184 -0.853254 -0.853332 -0.853417 -0.853508 -0.853605 -0.853708 
32 -0.853011 -0.853063 -0.85312 -0.853184 -0.853254 -0.853332 -0.853417 -0.853508 -0.853605 -0.853708 
33 -0.853011 -0.853063 -0.85312 -0.853184 -0.853254 -0.853332 -0.853417 -0.853508 -0.853605 -0.853708 
34 -0.853011 -0.853063 -0.85312 -0.853184 -0.853254 -0.853332 -0.853417 -0.853508 -0.853605 -0.853708 
35 -0.853011 -0.853063 -0.85312 -0.853184 -0.853254 -0.853332 -0.853417 -0.853508 -0.853605 -0.853708 
36 -0.853011 -0.853063 -0.85312 -0.853184 -0.853254 -0.853332 -0.853417 -0.853508 -0.853605 -0.853708 
37 -0.853011 -0.853063 -0.85312 -0.853184 -0.853254 -0.853332 -0.853417 -0.853508 -0.853605 -0.853708 
38 -0.853011 -0.853063 -0.85312 -0.853184 -0.853254 -0.853332 -0.853417 -0.853508 -0.853605 -0.853708 
39 -0.853011 -0.853063 -0.85312 -0.853184 -0.853254 -0.853332 -0.853417 -0.853508 -0.853605 -0.853708 
40 -0.853011 -0.853063 -0.85312 -0.853184 -0.853254 -0.853332 -0.853417 -0.853508 -0.853605 -0.853708 
41 -0.853011 -0.853063 -0.85312 -0.853184 -0.853254 -0.853332 -0.853417 -0.853508 -0.853605 -0.853708 
42 -0.853011 -0.853063 -0.85312 -0.853184 -0.853254 -0.853332 -0.853417 -0.853508 -0.853605 -0.853708 
43 -0.853011 -0.853063 -0.85312 -0.853184 -0.853254 -0.853332 -0.853417 -0.853508 -0.853605 -0.853708 
44 -0.853011 -0.853063 -0.85312 -0.853184 -0.853254 -0.853332 -0.853417 -0.853508 -0.853605 -0.853708 
45 -0.853011 -0.853063 -0.85312 -0.853184 -0.853254 -0.853332 -0.853417 -0.853508 -0.853605 -0.853708 
46 -0.853011 -0.853063 -0.85312 -0.853184 -0.853254 -0.853332 -0.853417 -0.853508 -0.853605 -0.853708 
47 -0.853011 -0.853063 -0.85312 -0.853184 -0.853254 -0.853332 -0.853417 -0.853508 -0.853605 -0.853708 
48 -0.853011 -0.853063 -0.85312 -0.853184 -0.853254 -0.853332 -0.853417 -0.853508 -0.853605 -0.853708 
49 -0.853011 -0.853063 -0.85312 -0.853184 -0.853254 -0.853332 -0.853417 -0.853508 -0.853605 -0.853708 
50 -0.853011 -0.853063 -0.85312 -0.853184 -0.853254 -0.853332 -0.853417 -0.853508 -0.853605 -0.853708 
51 -0.853011 -0.853063 -0.85312 -0.853184 -0.853254 -0.853332 -0.853417 -0.853508 -0.853605 -0.853708 
52 -0.853011 -0.853063 -0.85312 -0.853184 -0.853254 -0.853332 -0.853417 -0.853508 -0.853605 -0.853708 
53 -0.853011 -0.853063 -0.85312 -0.853184 -0.853254 -0.853332 -0.853417 -0.853508 -0.853605 -0.853708 
54 -0.853011 -0.853063 -0.85312 -0.853184 -0.853254 -0.853332 -0.853417 -0.853508 -0.853605 -0.853708 
55 -0.853011 -0.853063 -0.85312 -0.853184 -0.853254 -0.853332 -0.853417 -0.853508 -0.853605 -0.853708 
56 -0.853011 -0.853063 -0.85312 -0.853184 -0.853254 -0.853332 -0.853417 -0.853508 -0.853605 -0.853708 
57 -0.853011 -0.853063 -0.85312 -0.853184 -0.853254 -0.853332 -0.853417 -0.853508 -0.853605 -0.853708 
58 -0.853011 -0.853063 -0.85312 -0.853184 -0.853254 -0.853332 -0.853417 -0.853508 -0.853605 -0.853708 
59 -0.853011 -0.853063 -0.85312 -0.853184 -0.853254 -0.853332 -0.853417 -0.853508 -0.853605 -0.853708 
60 -0.853011 -0.853063 -0.85312 -0.853184 -0.853254 -0.853332 -0.853417 -0.853508 -0.853605 -0.853708 
61 -0.853011 -0.853063 -0.85312 -0.853184 -0.853254 -0.853332 -0.853417 -0.853508 -0.853605 -0.853708 
62 -0.853011 -0.853063 -0.85312 -0.853184 -0.853254 -0.853332 -0.853417 -0.853508 -0.853605 -0.853708 
63 -0.853011 -0.853063 -0.85312 -0.853184 -0.853254 -0.853332 -0.853417 -0.853508 -0.853605 -0.853708 
64 -0.853011 -0.853063 -0.85312 -0.853184 -0.853254 -0.853332 -0.853417 -0.853508 -0.853605 -0.853708 
65 -0.853011 -0.853063 -0.85312 -0.853184 -0.853254 -0.853332 -0.853417 -0.853508 -0.853605 -0.853708 
66 -0.853011 -0.853063 -0.85312 -0.853184 -0.853254 -0.853332 -0.853417 -0.853508 -0.853605 -0.853708 
67 -0.853011 -0.853063 -0.85312 -0.853184 -0.853254 -0.853332 -0.853417 -0.853508 -0.853605 -0.853708 
68 -0.853011 -0.853063 -0.85312 -0.853184 -0.853254 -0.853332 -0.853417 -0.853508 -0.853605 -0.853708 
69 -0.853011 -0.853063 -0.85312 -0.853184 -0.853254 -0.853332 -0.853417 -0.853508 -0.853605 -0.853708 
70 -0.853011 -0.853063 -0.85312 -0.853184 -0.853254 -0.853332 -0.853417 -0.853508 -0.853605 -0.853708 
71 -0.853011 -0.853063 -0.85312 -0.853184 -0.853254 -0.853332 -0.853417 -0.853508 -0.853605 -0.853708 
72 -0.853011 -0.853063 -0.85312 -0.853184 -0.853254 -0.853332 -0.853417 -0.853508 -0.853605 -0.853708 
73 -0.853011 -0.853063 -0.85312 -0.853184 -0.853254 -0.853332 -0.853417 -0.853508 -0.853605 -0.853708 
74 -0.853011 -0.853063 -0.85312 -0.853184 -0.853254 -0.853332 -0.853417 -0.853508 -0.853605 -0.853708 
75 -0.853011 -0.853063 -0.85312 -0.853184 -0.853254 -0.853332 -0.853417 -0.853508 -0.853605 -0.853708 
76 -0.853011 -0.853063 -0.85312 -0.853184 -0.853254 -0.853332 -0.853417 -0.853508 -0.853605 -0.853708 
77 -0.853011 -0.853063 -0.85312 -0.853184 -0.853254 -0.853332 -0.853417 -0.853508 -0.853605 -0.853708 
78 -0.853011 -0.853063 -0.85312 -0.853184 -0.853254 -0.853332 -0.853417 -0.853508 -0.853605 -0.853708 
79 -0.853011 -0.853063 -0.85312 -0.853184 -0.853254 -0.853332 -0.853417 -0.853508 -0.853605 -0.853708 
80 -0.853011 -0.853063 -0.85312 -0.853184 -0.853254 -0.853332 -0.853417 -0.853508 -0.853605 -0.853708 
81 -0.853011 -0.853063 -0.85312 -0.853184 -0.853254 -0.853332 -0.853417 -0.853508 -0.853605 -0.853708 
82 -0.853011 -0.853063 -0.85312 -0.853184 -0.853254 -0.853332 -0.853417 -0.853508 -0.853605 -0.853708 
83 -0.853011 -0.853063 -0.85312 -0.853184 -0.853254 -0.853332 -0.853417 -0.853508 -0.853605 -0.853708 
84 -0.853011 -0.853063 -0.85312 -0.853184 -0.853254 -0.853332 -0.853417 -0.853508 -0.853605 -0.853708 
85 -0.853011 -0.853063 -0.85312 -0.853184 -0.853254 -0.853332 -0.853417 -0.853508 -0.853605 -0.853708 
86 -0.853011 -0.853063 -0.85312 -0.853184 -0.853254 -0.853332 -0.853417 -0.853508 -0.853605 -0.853708 
87 -0.853011 -0.853063 -0.85312 -0.853184 -0.853254 -0.853332 -0.853417 -0.853508 -0.853605 -0.853708 
88 -0.853011 -0.853063 -0.85312 -0.853184 -0.853254 -0.853332 -0.853417 -0.853508 -0.853605 -0.853708 
89 -0.853011 -0.853063 -0.85312 -0.853184 -0.853254 -0.853332 -0.853417 -0.853508 -0.853605 -0.853708 
90 -0.853011 -0.853063 -0.85312 -0.853184 -0.853254 -0.853332 -0.853417 -0.853508 -0.853605 -0.853708 
91 -0.853011 -0.853063 -0.85312 -0.853184 -0.853254 -0.853332 -0.853417 -0.853508 -0.853605 -0.853708 
92 -0.853011 -0.853063 -0.85312 -0.853184 -0.853254 -0.853332 -0.853417 -0.853508 -0.853605 -0.853708 
93 -0.853011 -0.853063 -0.85312 -0.853184 -0.853254 -0.853332 -0.853417 -0.853508 -0.853605 -0.853708 
94 -0.853011 -0.853063 -0.85312 -0.853184 -0.853254 -0.853332 -0.853417 -0.853508 -0.853605 -0.853708 
95 -0.853011 -0.853063 -0.85312 -0.853183 -0.853254 -0.853332 -0.853417 -0.853508 -0.853605 -0.853708 
96 -0.853011 -0.853063 -0.85312 -0.853184 -0.853254 -0.853332 -0.853417 -0.853508 -0.853605 -0.853708 
97 -0.853011 -0.853063 -0.85312 -0.853184 -0.853254 -0.853332 -0.853417 -0.853508 -0.853605 -0.853708 
98 -0.853011 -0.853063 -0.85312 -0.853184 -0.853254 -0.853332 -0.853417 -0.853508 -0.853605 -0.853708 
99 -0.853011 -0.853063 -0.85312 -0.853183 -0.853254 -0.853332 -0.853417 -0.853508 -0.853605 -0.853708 
100 -0.853011 -0.853063 -0.85312 -0.853184 -0.853254 -0.853332 -0.853417 -0.853508 -0.853606 -0.853708 
101 -0.853011 -0.853063 -0.85312 -0.853184 -0.853254 -0.853332 -0.853417 -0.853508 -0.853605 -0.853708 
102 -0.853011 -0.853063 -0.85312 -0.853183 -0.853254 -0.853332 -0.853417 -0.853508 -0.853605 -0.853708 
103 -0.853011 -0.853063 -0.85312 -0.853184 -0.853254 -0.853332 -0.853417 -0.853508 -0.853605 -0.853708 
104 -0.853011 -0.853063 -0.85312 -0.853183 -0.853254 -0.853332 -0.853417 -0.853508 -0.853606 -0.853708 
105 -0.853011 -0.853063 -0.85312 -0.853184 -0.853254 -0.853332 -0.853417 -0.853508 -0.853606 -0.853708 
106 -0.853011 -0.853063 -0.85312 -0.853184 -0.853254 -0.853332 -0.853417 -0.853508 -0.853605 -0.853708 
107 -0.853011 -0.853063 -0.85312 -0.853184 -0.853254 -0.853332 -0.853417 -0.853508 -0.853605 -0.853708 
108 -0.853011 -0.853063 -0.85312 -0.853183 -0.853254 -0.853332 -0.853417 -0.853508 -0.853605 -0.853708 
109 -0.853011 -0.853063 -0.85312 -0.853184 -0.853254 -0.853332 -0.853417 -0.853508 -0.853605 -0.853708 
110 -0.853012 -0.853063 -0.85312 -0.853184 -0.853254 -0.853332 -0.853416 -0.853508 -0.853605 -0.853708 
111 -0.853011 -0.853062 -0.853119 -0.853183 -0.853254 -0.853332 -0.853416 -0.853508 -0.853605 -0.853708 
112 -0.853011 -0.853063 -0.85312 -0.853184 -0.853254 -0.853332 -0.853417 -0.853508 -0.853605 -0.853708 
113 -0.853011 -0.853063 -0.85312 -0.853184 -0.853254 -0.853332 -0.853417 -0.853508 -0.853605 -0.853708 
114 -0.853012 -0.853063 -0.85312 -0.853184 -0.853255 -0.853332 -0.853417 -0.853508 -0.853606 -0.853708 
115 -0.853012 -0.853063 -0.85312 -0.853184 -0.853255 -0.853333 -0.853417 -0.853509 -0.853606 -0.853709 
116 -0.853011 -0.853062 -0.853119 -0.853183 -0.853254 -0.853332 -0.853416 -0.853508 -0.853605 -0.853708 
117 -0.853009 -0.85306 -0.853117 -0.853181 -0.853252 -0.85333 -0.853414 -0.853506 -0.853603 -0.853706 
118 -0.853011 -0.853063 -0.85312 -0.853184 -0.853255 -0.853332 -0.853417 -0.853508 -0.853606 -0.853709 
119 -0.853015 -0.853066 -0.853123 -0.853187 -0.853257 -0.853335 -0.853419 -0.85351 -0.853608 -0.85371 
120 -0.853018 -0.853067 -0.853123 -0.853186 -0.853255 -0.853332 -0.853416 -0.853507 -0.853604 -0.853706 
121 -0.852989 -0.853044 -0.853104 -0.853171 -0.853245 -0.853325 -0.853412 -0.853505 -0.853604 -0.853709 
122 -0.853025 -0.853076 -0.853132 -0.853195 -0.853265 -0.853342 -0.853425 -0.853516 -0.853612 -0.853714 
123 -0.853003 -0.853055 -0.853113 -0.853178 -0.85325 -0.853328 -0.853414 -0.853506 -0.853604 -0.853707 
124 -0.853014 -0.853065 -0.853122 -0.853186 -0.853257 -0.853334 -0.853419 -0.85351 -0.853607 -0.85371 
125 -0.852921 -0.852992 -0.853067 -0.853147 -0.853233 -0.853324 -0.85342 -0.853521 -0.853627 -0.853736 
126 -0.853011 -0.853063 -0.85312 -0.853184 -0.853254 -0.853332 -0.853417 -0.853508 -0.853605 -0.853708 
127 -0.853099 -0.853137 -0.853182 -0.853235 -0.853296 -0.853365 -0.853441 -0.853525 -0.853616 -0.853713 
128 -0.853008 -0.85306 -0.853118 -0.853183 -0.853255 -0.853333 -0.853418 -0.85351 -0.853608 -0.853712 
129 -0.853075 -0.853118 -0.853166 -0.853222 -0.853285 -0.853356 -0.853434 -0.853519 -0.853612 -0.85371 
130 -0.852997 -0.853061 -0.85313 -0.853203 -0.853282 -0.853367 -0.853456 -0.853552 -0.853652 -0.853756 
131 -0.852964 -0.853019 -0.853081 -0.853149 -0.853225 -0.853306 -0.853395 -0.85349 -0.853591 -0.853697 
132 -0.853 -0.853051 -0.853109 -0.853174 -0.853245 -0.853324 -0.853409 -0.853502 -0.8536 -0.853703 
133 -0.853076 -0.853119 -0.853168 -0.853222 -0.853283 -0.853351 -0.853426 -0.853507 -0.853595 -0.853689 
134 -0.852725 -0.852786 -0.852853 -0.852928 -0.853012 -0.853103 -0.853202 -0.853309 -0.853422 -0.85354 
135 -0.853241 -0.853262 -0.85329 -0.853326 -0.85337 -0.853423 -0.853485 -0.853556 -0.853635 -0.853721 
136 -0.853011 -0.853063 -0.85312 -0.853184 -0.853254 -0.853332 -0.853417 -0.853508 -0.853605 -0.853708 
137 -0.853011 -0.853063 -0.85312 -0.853184 -0.853254 -0.853332 -0.853417 -0.853508 -0.853605 -0.853708 
138 -0.85139 -0.851407 -0.851448 -0.851514 -0.851602 -0.851713 -0.851845 -0.851997 -0.852166 -0.852351 
139 -0.854315 -0.854444 -0.854564 -0.854674 -0.854776 -0.85487 -0.854956 -0.855034 -0.855106 -0.85517 
140 -0.853015 -0.853066 -0.853123 -0.853186 -0.853257 -0.853334 -0.853419 -0.85351 -0.853607 -0.85371 
141 -0.852515 -0.852627 -0.852744 -0.852864 -0.85299 -0.853119 -0.853251 -0.853387 -0.853526 -0.853665 
142 -0.8537 -0.853665 -0.853639 -0.853623 -0.853617 -0.853622 -0.853639 -0.853667 -0.853706 -0.853757 
143 -0.85283 -0.852909 -0.852993 -0.853081 -0.853175 -0.853274 -0.853377 -0.853486 -0.853598 -0.853713 
144 -0.857943 -0.857851 -0.857745 -0.857625 -0.857495 -0.857356 -0.85721 -0.857059 -0.856904 -0.856748 
145 -0.853456 -0.853453 -0.853457 -0.853469 -0.853491 -0.853522 -0.853563 -0.853614 -0.853674 -0.853743 
146 -0.851927 -0.852008 -0.852104 -0.852217 -0.852346 -0.85249 -0.852647 -0.852816 -0.852996 -0.853184 
147 -0.853077 -0.853129 -0.853186 -0.853249 -0.853317 -0.853392 -0.853473 -0.85356 -0.853654 -0.853752 
148 -0.852815 -0.852864 -0.852921 -0.852987 -0.853062 -0.853146 -0.853239 -0.85334 -0.853448 -0.853563 
149 -0.852598 -0.852458 -0.852344 -0.852256 -0.852197 -0.852165 -0.852163 -0.852188 -0.852241 -0.85232 
150 -0.852077 -0.85221 -0.852351 -0.852499 -0.852654 -0.852815 -0.852981 -0.85315 -0.853323 -0.853497 
151 -0.852173 -0.852427 -0.852685 -0.852949 -0.853216 -0.853484 -0.853753 -0.854021 -0.854285 -0.854543 
152 -0.853013 -0.853065 -0.853123 -0.853188 -0.853259 -0.853337 -0.853421 -0.853513 -0.85361 -0.853713 
153 -0.848262 -0.848184 -0.848126 -0.84809 -0.848077 -0.848089 -0.848128 -0.848194 -0.848289 -0.848412 
154 -0.851137 -0.851619 -0.8521 -0.852578 -0.853051 -0.853516 -0.85397 -0.85441 -0.854833 -0.855236 
155 -0.85397 -0.854279 -0.854574 -0.854854 -0.855119 -0.855369 -0.855601 -0.855817 -0.856014 -0.856192 
156 -0.863693 -0.863588 -0.863442 -0.863253 -0.863022 -0.862748 -0.862432 -0.862077 -0.861683 -0.861253 
157 -0.854677 -0.854269 -0.853888 -0.853537 -0.853218 -0.852933 -0.852683 -0.852468 -0.852291 -0.85215 
158 -0.855634 -0.855665 -0.855683 -0.85569 -0.855687 -0.855675 -0.855656 -0.85563 -0.8556 -0.855566 
159 -0.853012 -0.853063 -0.85312 -0.853184 -0.853255 -0.853332 -0.853417 -0.853508 -0.853606 -0.853708 
160 -0.853823 -0.853574 -0.853352 -0.853161 -0.853002 -0.852874 -0.852779 -0.852717 -0.852687 -0.852687 
161 -0.834172 -0.834484 -0.834806 -0.83514 -0.835484 -0.835839 -0.836203 -0.836579 -0.836965 -0.837363 
162 -0.841821 -0.841843 -0.841904 -0.842007 -0.842152 -0.842342 -0.842576 -0.842855 -0.843178 -0.843543 
163 -0.841614 -0.842131 -0.842679 -0.843261 -0.843877 -0.844528 -0.845212 -0.845929 -0.846677 -0.847452 
164 -0.865533 -0.865432 -0.865311 -0.865171 -0.865013 -0.864836 -0.86464 -0.864427 -0.864194 -0.863943 
165 -0.86775 -0.867402 -0.867015 -0.86659 -0.866127 -0.865626 -0.865088 -0.864515 -0.863907 -0.863269 
166 -0.830504 -0.830875 -0.831291 -0.831756 -0.832272 -0.832843 -0.833469 -0.834154 -0.834897 -0.835699 
167 -0.853665 -0.853861 -0.854091 -0.854354 -0.854649 -0.854974 -0.855325 -0.855699 -0.856093 -0.856499 
168 -0.832306 -0.832556 -0.832846 -0.833179 -0.833557 -0.833979 -0.834448 -0.834963 -0.835525 -0.836134 
169 -0.860642 -0.859659 -0.858695 -0.857758 -0.856856 -0.855996 -0.855185 -0.854429 -0.853736 -0.853109 
170 -0.872577 -0.872693 -0.872806 -0.872919 -0.873033 -0.873149 -0.873267 -0.87339 -0.873516 -0.873643 
171 -0.882829 -0.882862 -0.882816 -0.882687 -0.882469 -0.882157 -0.881748 -0.881239 -0.880627 -0.879909 
172 -0.833003 -0.83309 -0.833223 -0.833406 -0.833644 -0.833943 -0.834308 -0.834743 -0.835252 -0.835838 
173 -0.853011 -0.853063 -0.85312 -0.853184 -0.853254 -0.853332 -0.853417 -0.853508 -0.853605 -0.853708 
174 -0.863085 -0.863381 -0.863707 -0.864062 -0.864443 -0.864847 -0.865269 -0.865704 -0.866147 -0.866592 
175 -0.876777 -0.877188 -0.87763 -0.878106 -0.878615 -0.879155 -0.879726 -0.880327 -0.880954 -0.881604 
176 -0.840106 -0.840029 -0.839949 -0.839869 -0.83979 -0.839715 -0.839646 -0.839584 -0.839532 -0.839488 
177 -0.826688 -0.826892 -0.827119 -0.827366 -0.827629 -0.8279 -0.828173 -0.828444 -0.828704 -0.828948 
178 -0.873502 -0.873924 -0.874386 -0.87489 -0.875434 -0.876015 -0.87663 -0.877276 -0.877948 -0.878642 
179 -0.853011 -0.853063 -0.85312 -0.853184 -0.853254 -0.853332 -0.853417 -0.853508 -0.853605 -0.853708 
180 -0.852715 -0.852766 -0.852809 -0.852845 -0.852875 -0.8529 -0.852921 -0.852943 -0.852966 -0.852994 
181 -0.888188 -0.888374 -0.888512 -0.888605 -0.888656 -0.888667 -0.888644 -0.888591 -0.888513 -0.888415 
182 -0.822428 -0.822232 -0.82203 -0.821823 -0.82161 -0.821393 -0.821171 -0.820946 -0.820717 -0.820487 
183 -0.837965 -0.837766 -0.837554 -0.837332 -0.837106 -0.836881 -0.836661 -0.836451 -0.836253 -0.836072 
184 -0.820222 -0.820123 -0.820062 -0.820042 -0.820067 -0.820138 -0.820259 -0.820433 -0.820664 -0.820956 
185 -0.885161 -0.885614 -0.886077 -0.886556 -0.887055 -0.887577 -0.888128 -0.888713 -0.889336 -0.890001 
186 -0.89151 -0.891798 -0.892119 -0.892469 -0.892845 -0.893242 -0.893653 -0.89407 -0.894485 -0.894887 
187 -0.82615 -0.826237 -0.826326 -0.826409 -0.82648 -0.826532 -0.826557 -0.826548 -0.826499 -0.826403 
188 -0.865705 -0.865568 -0.865426 -0.865281 -0.865137 -0.864994 -0.864853 -0.864718 -0.864592 -0.864478 
189 -0.888725 -0.888737 -0.888759 -0.88879 -0.888827 -0.888865 -0.888903 -0.888936 -0.88896 -0.88897 
190 -0.853129 -0.853163 -0.853203 -0.853251 -0.853306 -0.85337 -0.853441 -0.85352 -0.853606 -0.853699 
191 -0.853011 -0.853063 -0.85312 -0.853184 -0.853254 -0.853332 -0.853417 -0.853508 -0.853605 -0.853708 
192 -0.811347 -0.810943 -0.810518 -0.810079 -0.809633 -0.809182 -0.808735 -0.808298 -0.807879 -0.807481 
193 -0.853011 -0.853063 -0.85312 -0.853184 -0.853254 -0.853332 -0.853417 -0.853508 -0.853605 -0.853708 
194 -0.874282 -0.874141 -0.873989 -0.873825 -0.873648 -0.873456 -0.873245 -0.873014 -0.872758 -0.872474 
195 -0.854904 -0.854505 -0.854096 -0.85368 -0.853258 -0.852832 -0.852407 -0.851988 -0.851584 -0.851199 
196 -0.850809 -0.851271 -0.851724 -0.852167 -0.852599 -0.853017 -0.853419 -0.853803 -0.854168 -0.854511 
197 -0.852966 -0.853013 -0.853067 -0.85313 -0.8532 -0.853277 -0.853363 -0.853455 -0.853555 -0.85366 
198 -0.853011 -0.853063 -0.85312 -0.853184 -0.853254 -0.853332 -0.853417 -0.853508 -0.853605 -0.853708 
199 -0.790999 -0.790451 -0.789874 -0.789277 -0.788671 -0.788064 -0.787465 -0.786884 -0.786327 -0.785801 
200 -0.834878 -0.834435 -0.833966 -0.833474 -0.832963 -0.832435 -0.831899 -0.831364 -0.830838 -0.830326 
201 -0.906445 -0.906445 -0.906467 -0.906506 -0.906557 -0.906616 -0.90668 -0.906742 -0.906795 -0.906834 
202 -0.853011 -0.853063 -0.85312 -0.853184 -0.853254 -0.853332 -0.853417 -0.853508 -0.853605 -0.853708 
203 -0.889839 -0.890374 -0.890874 -0.891339 -0.891762 -0.892141 -0.892469 -0.892741 -0.892951 -0.893089 
204 -0.853017 -0.853017 -0.853027 -0.853048 -0.853081 -0.853124 -0.853178 -0.853242 -0.853317 -0.853401 
205 -0.900647 -0.900919 -0.901214 -0.901529 -0.901859 -0.902199 -0.902538 -0.902869 -0.90318 -0.903458 
206 -0.853011 -0.853063 -0.85312 -0.853184 -0.853254 -0.853332 -0.853417 -0.853508 -0.853605 -0.853708 
207 -0.777445 -0.776901 -0.776329 -0.775742 -0.775151 -0.774562 -0.773987 -0.773436 -0.772921 -0.772445 
208 -0.857402 -0.85702 -0.856657 -0.856315 -0.855995 -0.855691 -0.8554 -0.855124 -0.85487 -0.854647 
209 -0.898309 -0.898602 -0.898902 -0.899208 -0.89952 -0.899837 -0.900157 -0.900479 -0.900799 -0.901117 
210 -0.916345 -0.916152 -0.915984 -0.915833 -0.915695 -0.915569 -0.915457 -0.91536 -0.915272 -0.915193 
211 -0.853011 -0.853063 -0.85312 -0.853184 -0.853254 -0.853332 -0.853417 -0.853508 -0.853605 -0.853708 
212 -0.853011 -0.853063 -0.85312 -0.853184 -0.853254 -0.853332 -0.853417 -0.853508 -0.853605 -0.853708 
213 -0.83597 -0.836856 -0.837787 -0.838759 -0.839771 -0.840817 -0.841894 -0.842997 -0.84412 -0.845255 
214 -0.761651 -0.761029 -0.760384 -0.759728 -0.759073 -0.75843 -0.757813 -0.757234 -0.756697 -0.756206 
215 -0.79712 -0.796797 -0.796437 -0.796027 -0.795572 -0.795092 -0.794607 -0.794113 -0.793595 -0.793051 
216 -0.800887 -0.800859 -0.800845 -0.800824 -0.800783 -0.800731 -0.800689 -0.800661 -0.80062 -0.80054 
217 -0.853957 -0.853903 -0.85386 -0.853829 -0.853809 -0.8538 -0.8538 -0.85381 -0.853829 -0.853855 
218 -0.84265 -0.842358 -0.842034 -0.841692 -0.841344 -0.840984 -0.840586 -0.840131 -0.839635 -0.839137 
219 -0.85301 -0.853062 -0.853119 -0.853183 -0.853254 -0.853332 -0.853416 -0.853507 -0.853605 -0.853708 
220 -0.947473 -0.9476 -0.947713 -0.947829 -0.947955 -0.948062 -0.948104 -0.948065 -0.947978 -0.947893 
221 -0.792121 -0.79164 -0.791113 -0.790551 -0.789969 -0.789379 -0.788782 -0.788179 -0.787579 -0.786999 
222 -0.733759 -0.733287 -0.732797 -0.732283 -0.731719 -0.731093 -0.73042 -0.72974 -0.729072 -0.728398 
223 -0.90103 -0.901078 -0.90109 -0.901057 -0.900988 -0.900896 -0.900772 -0.900588 -0.900327 -0.900011 
224 -0.921885 -0.922014 -0.922177 -0.922365 -0.922575 -0.922805 -0.92305 -0.923302 -0.923549 -0.923781 
225 -0.82129 -0.821233 -0.821192 -0.821161 -0.821136 -0.82111 -0.821074 -0.821023 -0.82095 -0.820848 
226 -0.795357 -0.795004 -0.794639 -0.794267 -0.793892 -0.79352 -0.793157 -0.79281 -0.792485 -0.79219 
227 -0.886535 -0.886407 -0.886232 -0.886003 -0.885723 -0.88539 -0.884992 -0.884508 -0.883931 -0.883275 
228 -0.817046 -0.817344 -0.817657 -0.817976 -0.818294 -0.818597 -0.818877 -0.819121 -0.819318 -0.819454 
229 -0.853011 -0.853063 -0.85312 -0.853184 -0.853254 -0.853332 -0.853417 -0.853508 -0.853605 -0.853708 
230 -0.853011 -0.853063 -0.85312 -0.853184 -0.853254 -0.853332 -0.853417 -0.853508 -0.853605 -0.853708 
231 -0.853011 -0.853063 -0.85312 -0.853184 -0.853254 -0.853332 -0.853417 -0.853508 -0.853605 -0.853708 
232 -1.08977 -1.08898 -1.08812 -1.08711 -1.08589 -1.08453 -1.08315 -1.0818 -1.08039 -1.07879 
233 -0.853011 -0.853063 -0.85312 -0.853184 -0.853254 -0.853332 -0.853417 -0.853508 -0.853605 -0.853708 
234 -0.982409 -0.98239 -0.982354 -0.982306 -0.982236 -0.982116 -0.981926 -0.981676 -0.981396 -0.981104 
235 -0.643086 -0.642723 -0.64227 -0.641801 -0.64135 -0.640861 -0.640245 -0.639499 -0.638749 -0.638129 
236 -0.913379 -0.913516 -0.913689 -0.913899 -0.914146 -0.914424 -0.914728 -0.915048 -0.915377 -0.915707 
237 -1.10584 -1.1051 -1.1043 -1.10333 -1.10215 -1.10082 -1.09947 -1.09813 -1.09668 -1.09501 
238 -0.852996 -0.853049 -0.853107 -0.853172 -0.853244 -0.853323 -0.853408 -0.8535 -0.853599 -0.853702 
239 -0.703675 -0.703539 -0.703316 -0.703086 -0.702862 -0.702553 -0.702057 -0.7014 -0.700735 -0.700189 
240 -0.762198 -0.761563 -0.76092 -0.760295 -0.759711 -0.759182 -0.758723 -0.758347 -0.75807 -0.757901 
241 -0.728876 -0.728399 -0.727906 -0.727398 -0.72688 -0.726368 -0.725887 -0.725454 -0.725073 -0.724739 
242 -0.853011 -0.853063 -0.85312 -0.853184 -0.853254 -0.853332 -0.853417 -0.853508 -0.853605 -0.853708 
243 -0.987763 -0.987791 -0.987846 -0.987917 -0.987978 -0.988016 -0.988037 -0.988059 -0.988077 -0.988061 
244 -1.11358 -1.11287 -1.11207 -1.11115 -1.11015 -1.10919 -1.10827 -1.10733 -1.10627 -1.10514 
245 -0.51392 -0.513772 -0.513688 -0.513695 -0.513726 -0.513691 -0.513596 -0.51356 -0.513687 -0.513927 
246 -1.04681 -1.04647 -1.04607 -1.04561 -1.04514 -1.04468 -1.04423 -1.0437 -1.04309 -1.04246 
247 -0.85386 -0.853966 -0.854064 -0.854155 -0.85424 -0.85432 -0.854394 -0.854465 -0.854532 -0.854596 
248 -0.853011 -0.853063 -0.85312 -0.853184 -0.853254 -0.853332 -0.853417 -0.853508 -0.853605 -0.853708 
249 -0.603136 -0.602889 -0.602684 -0.602508 -0.602317 -0.602098 -0.601895 -0.601773 -0.601743 -0.601746 
250 -0.805808 -0.805859 -0.805914 -0.805969 -0.806019 -0.806058 -0.806085 -0.806099 -0.8061 -0.80609 
251 -0.767038 -0.766533 -0.766037 -0.765567 -0.76514 -0.764769 -0.764467 -0.764248 -0.76412 -0.764084 
252 -0.739387 -0.738951 -0.738503 -0.738065 -0.737666 -0.737329 -0.737058 -0.736852 -0.736721 -0.736687 
253 -0.853011 -0.853063 -0.85312 -0.853184 -0.853254 -0.853332 -0.853417 -0.853508 -0.853605 -0.853708 
254 -0.888087 -0.888371 -0.888652 -0.888931 -0.889213 -0.8895 -0.889797 -0.89011 -0.890444 -0.890805 
255 -0.853011 -0.853063 -0.85312 -0.853183 -0.853254 -0.853332 -0.853417 -0.853508 -0.853605 -0.853708 
256 -0.870645 -0.870176 -0.869684 -0.869172 -0.86864 -0.86809 -0.867522 -0.866939 -0.866342 -0.865732 
257 -1.04534 -1.04517 -1.04496 -1.04475 -1.04458 -1.04445 -1.04428 -1.04405 -1.04382 -1.0437 
258 -0.819406 -0.819614 -0.819847 -0.820096 -0.820352 -0.820599 -0.820822 -0.821002 -0.821119 -0.82115 
259 -0.883771 -0.884303 -0.884819 -0.885323 -0.885815 -0.886301 -0.886781 -0.88726 -0.887742 -0.888229 
260 -0.623421 -0.623365 -0.623333 -0.62328 -0.623183 -0.623087 -0.623069 -0.623159 -0.623301 -0.623424 
261 -0.994328 -0.994291 -0.994293 -0.994331 -0.994388 -0.994444 -0.994493 -0.994542 -0.994594 -0.994626 
262 -1.02557 -1.0254 -1.02524 -1.0251 -1.025 -1.0249 -1.02478 -1.02466 -1.02457 -1.02453 
263 -0.853011 -0.853063 -0.85312 -0.853184 -0.853254 -0.853332 -0.853417 -0.853508 -0.853605 -0.853708 
264 -0.824932 -0.824243 -0.823519 -0.822763 -0.82198 -0.821172 -0.820348 -0.819515 -0.818683 -0.817862 
265 -0.710102 -0.70983 -0.709558 -0.709291 -0.70907 -0.708944 -0.708933 -0.709005 -0.709122 -0.709299 
266 -0.668359 -0.668269 -0.668191 -0.668106 -0.668029 -0.668008 -0.668084 -0.668245 -0.668442 -0.668654 
267 -0.911574 -0.911673 -0.911844 -0.912085 -0.912391 -0.912753 -0.913158 -0.913598 -0.914067 -0.914555 
268 -0.829748 -0.829429 -0.829131 -0.828861 -0.828628 -0.82844 -0.828306 -0.828234 -0.828233 -0.828309 
269 -0.853011 -0.853063 -0.85312 -0.853184 -0.853254 -0.853332 -0.853417 -0.853508 -0.853605 -0.853708 
270 -1.00528 -1.00508 -1.00491 -1.00477 -1.00464 -1.0045 -1.0044 -1.00435 -1.00435 -1.00435 
271 -0.967359 -0.967308 -0.967314 -0.967364 -0.967447 -0.96757 -0.967735 -0.967929 -0.968118 -0.968272 
272 -0.690143 -0.690251 -0.690322 -0.690398 -0.690523 -0.690691 -0.690843 -0.690944 -0.691038 -0.691212 
273 -0.769803 -0.769584 -0.769403 -0.769275 -0.769209 -0.76922 -0.76932 -0.769518 -0.769815 -0.770205 
274 -0.73386 -0.73361 -0.733371 -0.733185 -0.733084 -0.733071 -0.73313 -0.733259 -0.733495 -0.733875 
275 -0.853009 -0.85306 -0.853118 -0.853182 -0.853253 -0.853331 -0.853415 -0.853507 -0.853605 -0.853708 
276 -0.977691 -0.977586 -0.97753 -0.97751 -0.977511 -0.977541 -0.977615 -0.977734 -0.977868 -0.977982 
277 -0.853011 -0.853063 -0.85312 -0.853184 -0.853254 -0.853332 -0.853417 -0.853508 -0.853605 -0.853708 
278 -0.713905 -0.713891 -0.713881 -0.713911 -0.714007 -0.71416 -0.714342 -0.714551 -0.714821 -0.715193 
279 -0.762944 -0.762794 -0.762688 -0.762647 -0.76268 -0.762789 -0.762991 -0.763313 -0.763773 -0.764366 
280 -0.937927 -0.937971 -0.938088 -0.938279 -0.938544 -0.938874 -0.939254 -0.939661 -0.940085 -0.940523 
281 -0.809107 -0.809388 -0.809665 -0.809927 -0.810164 -0.810363 -0.810518 -0.810625 -0.810684 -0.810698 
282 -0.940111 -0.939781 -0.939494 -0.939275 -0.939144 -0.939112 -0.939167 -0.939294 -0.939483 -0.939735 
283 -0.897316 -0.897488 -0.897708 -0.897976 -0.89829 -0.89865 -0.899055 -0.899503 -0.899993 -0.90052 
284 -0.790292 -0.790471 -0.79067 -0.790889 -0.791124 -0.791374 -0.791633 -0.791896 -0.792164 -0.792436 
285 -0.74449 -0.744646 -0.744851 -0.745091 -0.745337 -0.745578 -0.745839 -0.746153 -0.746514 -0.746869 
286 -0.853011 -0.853063 -0.85312 -0.853184 -0.853254 -0.853332 -0.853417 -0.853508 -0.853605 -0.853708 
287 -0.77883 -0.778838 -0.778881 -0.778969 -0.779114 -0.779338 -0.779666 -0.78011 -0.780658 -0.781293 
288 -0.927122 -0.926943 -0.926829 -0.926791 -0.926837 -0.92697 -0.927181 -0.927456 -0.927782 -0.928152 