VARIABLES = "Cell" "Mode 0" "Mode 1" "Mode 2" "Mode 3" "Mode 4" "Mode 5" "Mode 6" "Mode 7" "Mode 8" "Mode 9" 
ZONE T = Iteration248
0 -0.850125 -0.850132 -0.85014 -0.850149 -0.85016 -0.850171 -0.850183 -0.850196 -0.85021 -0.850224 
1 -0.850125 -0.850132 -0.85014 -0.850149 -0.85016 -0.850171 -0.850183 -0.850196 -0.85021 -0.850224 
2 -0.850125 -0.850132 -0.85014 -0.850149 -0.85016 -0.850171 -0.850183 -0.850196 -0.85021 -0.850224 
3 -0.850125 -0.850132 -0.85014 -0.850149 -0.85016 -0.850171 -0.850183 -0.850196 -0.85021 -0.850224 
4 -0.850125 -0.850132 -0.85014 -0.850149 -0.85016 -0.850171 -0.850183 -0.850196 -0.85021 -0.850224 
5 -0.850125 -0.850132 -0.85014 -0.850149 -0.85016 -0.850171 -0.850183 -0.850196 -0.85021 -0.850224 
6 -0.850125 -0.850132 -0.85014 -0.850149 -0.85016 -0.850171 -0.850183 -0.850196 -0.85021 -0.850224 
7 -0.850125 -0.850132 -0.85014 -0.850149 -0.85016 -0.850171 -0.850183 -0.850196 -0.85021 -0.850224 
8 -0.850125 -0.850132 -0.85014 -0.850149 -0.85016 -0.850171 -0.850183 -0.850196 -0.85021 -0.850224 
9 -0.850125 -0.850132 -0.85014 -0.850149 -0.85016 -0.850171 -0.850183 -0.850196 -0.85021 -0.850224 
10 -0.850125 -0.850132 -0.85014 -0.850149 -0.85016 -0.850171 -0.850183 -0.850196 -0.85021 -0.850224 
11 -0.850125 -0.850132 -0.85014 -0.850149 -0.85016 -0.850171 -0.850183 -0.850196 -0.85021 -0.850224 
12 -0.850125 -0.850132 -0.85014 -0.850149 -0.85016 -0.850171 -0.850183 -0.850196 -0.85021 -0.850224 
13 -0.850125 -0.850132 -0.85014 -0.850149 -0.85016 -0.850171 -0.850183 -0.850196 -0.85021 -0.850224 
14 -0.850125 -0.850132 -0.85014 -0.850149 -0.85016 -0.850171 -0.850183 -0.850196 -0.85021 -0.850224 
15 -0.850125 -0.850132 -0.85014 -0.850149 -0.85016 -0.850171 -0.850183 -0.850196 -0.85021 -0.850224 
16 -0.850125 -0.850132 -0.85014 -0.850149 -0.85016 -0.850171 -0.850183 -0.850196 -0.85021 -0.850224 
17 -0.850125 -0.850132 -0.85014 -0.850149 -0.85016 -0.850171 -0.850183 -0.850196 -0.85021 -0.850224 
18 -0.850125 -0.850132 -0.85014 -0.850149 -0.85016 -0.850171 -0.850183 -0.850196 -0.85021 -0.850224 
19 -0.850125 -0.850132 -0.85014 -0.850149 -0.85016 -0.850171 -0.850183 -0.850196 -0.85021 -0.850224 
20 -0.850125 -0.850132 -0.85014 -0.850149 -0.85016 -0.850171 -0.850183 -0.850196 -0.85021 -0.850224 
21 -0.850125 -0.850132 -0.85014 -0.850149 -0.85016 -0.850171 -0.850183 -0.850196 -0.85021 -0.850224 
22 -0.850125 -0.850132 -0.85014 -0.850149 -0.85016 -0.850171 -0.850183 -0.850196 -0.85021 -0.850224 
23 -0.850125 -0.850132 -0.85014 -0.850149 -0.85016 -0.850171 -0.850183 -0.850196 -0.85021 -0.850224 
24 -0.850125 -0.850132 -0.85014 -0.850149 -0.85016 -0.850171 -0.850183 -0.850196 -0.85021 -0.850224 
25 -0.850125 -0.850132 -0.85014 -0.850149 -0.85016 -0.850171 -0.850183 -0.850196 -0.85021 -0.850224 
26 -0.850125 -0.850132 -0.85014 -0.850149 -0.85016 -0.850171 -0.850183 -0.850196 -0.85021 -0.850224 
27 -0.850125 -0.850132 -0.85014 -0.850149 -0.85016 -0.850171 -0.850183 -0.850196 -0.85021 -0.850224 
28 -0.850125 -0.850132 -0.85014 -0.850149 -0.85016 -0.850171 -0.850183 -0.850196 -0.85021 -0.850224 
29 -0.850125 -0.850132 -0.85014 -0.850149 -0.85016 -0.850171 -0.850183 -0.850196 -0.85021 -0.850224 
30 -0.850125 -0.850132 -0.85014 -0.850149 -0.85016 -0.850171 -0.850183 -0.850196 -0.85021 -0.850224 
31 -0.850125 -0.850132 -0.85014 -0.850149 -0.85016 -0.850171 -0.850183 -0.850196 -0.85021 -0.850224 
32 -0.850125 -0.850132 -0.85014 -0.850149 -0.85016 -0.850171 -0.850183 -0.850196 -0.85021 -0.850224 
33 -0.850125 -0.850132 -0.85014 -0.850149 -0.85016 -0.850171 -0.850183 -0.850196 -0.85021 -0.850224 
34 -0.850125 -0.850132 -0.85014 -0.850149 -0.85016 -0.850171 -0.850183 -0.850196 -0.85021 -0.850224 
35 -0.850125 -0.850132 -0.85014 -0.850149 -0.85016 -0.850171 -0.850183 -0.850196 -0.85021 -0.850224 
36 -0.850125 -0.850132 -0.85014 -0.850149 -0.85016 -0.850171 -0.850183 -0.850196 -0.85021 -0.850224 
37 -0.850125 -0.850132 -0.85014 -0.850149 -0.85016 -0.850171 -0.850183 -0.850196 -0.85021 -0.850224 
38 -0.850125 -0.850132 -0.85014 -0.850149 -0.85016 -0.850171 -0.850183 -0.850196 -0.85021 -0.850224 
39 -0.850125 -0.850132 -0.85014 -0.850149 -0.85016 -0.850171 -0.850183 -0.850196 -0.85021 -0.850224 
40 -0.850125 -0.850132 -0.85014 -0.850149 -0.85016 -0.850171 -0.850183 -0.850196 -0.85021 -0.850224 
41 -0.850125 -0.850132 -0.85014 -0.850149 -0.85016 -0.850171 -0.850183 -0.850196 -0.85021 -0.850224 
42 -0.850125 -0.850132 -0.85014 -0.850149 -0.85016 -0.850171 -0.850183 -0.850196 -0.85021 -0.850224 
43 -0.850125 -0.850132 -0.85014 -0.850149 -0.85016 -0.850171 -0.850183 -0.850196 -0.85021 -0.850224 
44 -0.850125 -0.850132 -0.85014 -0.850149 -0.85016 -0.850171 -0.850183 -0.850196 -0.85021 -0.850224 
45 -0.850125 -0.850132 -0.85014 -0.850149 -0.85016 -0.850171 -0.850183 -0.850196 -0.85021 -0.850224 
46 -0.850125 -0.850132 -0.85014 -0.850149 -0.85016 -0.850171 -0.850183 -0.850196 -0.85021 -0.850224 
47 -0.850125 -0.850132 -0.85014 -0.850149 -0.85016 -0.850171 -0.850183 -0.850196 -0.85021 -0.850224 
48 -0.850125 -0.850132 -0.85014 -0.850149 -0.85016 -0.850171 -0.850183 -0.850196 -0.85021 -0.850224 
49 -0.850125 -0.850132 -0.85014 -0.850149 -0.85016 -0.850171 -0.850183 -0.850196 -0.85021 -0.850224 
50 -0.850125 -0.850132 -0.85014 -0.850149 -0.85016 -0.850171 -0.850183 -0.850196 -0.85021 -0.850224 
51 -0.850125 -0.850132 -0.85014 -0.850149 -0.85016 -0.850171 -0.850183 -0.850196 -0.85021 -0.850224 
52 -0.850125 -0.850132 -0.85014 -0.850149 -0.85016 -0.850171 -0.850183 -0.850196 -0.85021 -0.850224 
53 -0.850125 -0.850132 -0.85014 -0.850149 -0.85016 -0.850171 -0.850183 -0.850196 -0.85021 -0.850224 
54 -0.850125 -0.850132 -0.85014 -0.850149 -0.85016 -0.850171 -0.850183 -0.850196 -0.85021 -0.850224 
55 -0.850125 -0.850132 -0.85014 -0.850149 -0.85016 -0.850171 -0.850183 -0.850196 -0.85021 -0.850224 
56 -0.850125 -0.850132 -0.85014 -0.850149 -0.85016 -0.850171 -0.850183 -0.850196 -0.85021 -0.850224 
57 -0.850125 -0.850132 -0.85014 -0.850149 -0.85016 -0.850171 -0.850183 -0.850196 -0.85021 -0.850224 
58 -0.850125 -0.850132 -0.85014 -0.850149 -0.85016 -0.850171 -0.850183 -0.850196 -0.85021 -0.850224 
59 -0.850125 -0.850132 -0.85014 -0.850149 -0.85016 -0.850171 -0.850183 -0.850196 -0.85021 -0.850224 
60 -0.850125 -0.850132 -0.85014 -0.850149 -0.85016 -0.850171 -0.850183 -0.850196 -0.85021 -0.850224 
61 -0.850125 -0.850132 -0.85014 -0.850149 -0.85016 -0.850171 -0.850183 -0.850196 -0.85021 -0.850224 
62 -0.850125 -0.850132 -0.85014 -0.850149 -0.85016 -0.850171 -0.850183 -0.850196 -0.85021 -0.850224 
63 -0.850125 -0.850132 -0.85014 -0.850149 -0.85016 -0.850171 -0.850183 -0.850196 -0.85021 -0.850224 
64 -0.850125 -0.850132 -0.85014 -0.850149 -0.85016 -0.850171 -0.850183 -0.850196 -0.85021 -0.850224 
65 -0.850125 -0.850132 -0.85014 -0.850149 -0.850159 -0.850171 -0.850183 -0.850196 -0.85021 -0.850224 
66 -0.850125 -0.850132 -0.85014 -0.850149 -0.85016 -0.850171 -0.850183 -0.850196 -0.85021 -0.850224 
67 -0.850125 -0.850132 -0.85014 -0.850149 -0.850159 -0.850171 -0.850183 -0.850196 -0.85021 -0.850224 
68 -0.850125 -0.850132 -0.85014 -0.850149 -0.850159 -0.850171 -0.850183 -0.850196 -0.85021 -0.850224 
69 -0.850125 -0.850132 -0.85014 -0.850149 -0.85016 -0.850171 -0.850183 -0.850196 -0.85021 -0.850224 
70 -0.850125 -0.850132 -0.85014 -0.850149 -0.85016 -0.850171 -0.850183 -0.850196 -0.85021 -0.850224 
71 -0.850125 -0.850132 -0.85014 -0.850149 -0.85016 -0.850171 -0.850183 -0.850196 -0.85021 -0.850224 
72 -0.850125 -0.850132 -0.85014 -0.850149 -0.850159 -0.850171 -0.850183 -0.850196 -0.85021 -0.850224 
73 -0.850125 -0.850132 -0.85014 -0.850149 -0.850159 -0.850171 -0.850183 -0.850196 -0.85021 -0.850224 
74 -0.850125 -0.850132 -0.85014 -0.850149 -0.85016 -0.850171 -0.850183 -0.850196 -0.85021 -0.850224 
75 -0.850125 -0.850132 -0.85014 -0.850149 -0.850159 -0.850171 -0.850183 -0.850196 -0.85021 -0.850224 
76 -0.850125 -0.850132 -0.85014 -0.850149 -0.85016 -0.850171 -0.850183 -0.850196 -0.85021 -0.850224 
77 -0.850125 -0.850132 -0.85014 -0.850149 -0.85016 -0.850171 -0.850183 -0.850196 -0.85021 -0.850224 
78 -0.850125 -0.850132 -0.85014 -0.850149 -0.850159 -0.850171 -0.850183 -0.850196 -0.85021 -0.850224 
79 -0.850125 -0.850132 -0.85014 -0.85015 -0.85016 -0.850171 -0.850183 -0.850196 -0.85021 -0.850224 
80 -0.850125 -0.850132 -0.85014 -0.850149 -0.850159 -0.850171 -0.850183 -0.850196 -0.850209 -0.850224 
81 -0.850124 -0.850132 -0.85014 -0.850149 -0.850159 -0.850171 -0.850183 -0.850196 -0.850209 -0.850224 
82 -0.850125 -0.850132 -0.85014 -0.850149 -0.850159 -0.850171 -0.850183 -0.850196 -0.85021 -0.850224 
83 -0.850125 -0.850132 -0.85014 -0.850149 -0.85016 -0.850171 -0.850183 -0.850196 -0.85021 -0.850224 
84 -0.850125 -0.850132 -0.85014 -0.850149 -0.85016 -0.850171 -0.850183 -0.850196 -0.85021 -0.850224 
85 -0.850125 -0.850132 -0.85014 -0.850149 -0.850159 -0.850171 -0.850183 -0.850196 -0.85021 -0.850224 
86 -0.850125 -0.850132 -0.85014 -0.850149 -0.85016 -0.850171 -0.850183 -0.850196 -0.85021 -0.850224 
87 -0.850125 -0.850132 -0.85014 -0.850149 -0.85016 -0.850171 -0.850183 -0.850196 -0.85021 -0.850224 
88 -0.850125 -0.850132 -0.85014 -0.850149 -0.850159 -0.850171 -0.850183 -0.850196 -0.850209 -0.850224 
89 -0.85011 -0.850117 -0.850125 -0.850134 -0.850144 -0.850156 -0.850168 -0.850181 -0.850195 -0.850209 
90 -0.850125 -0.850132 -0.85014 -0.850149 -0.85016 -0.850171 -0.850183 -0.850196 -0.85021 -0.850224 
91 -0.850129 -0.850136 -0.850145 -0.850154 -0.850165 -0.850176 -0.850188 -0.850201 -0.850215 -0.85023 
92 -0.850117 -0.850124 -0.850133 -0.850142 -0.850152 -0.850164 -0.850176 -0.850189 -0.850203 -0.850218 
93 -0.850105 -0.850112 -0.850121 -0.85013 -0.850141 -0.850153 -0.850165 -0.850178 -0.850193 -0.850208 
94 -0.850125 -0.850132 -0.85014 -0.850149 -0.85016 -0.850171 -0.850183 -0.850196 -0.85021 -0.850224 
95 -0.850092 -0.850101 -0.85011 -0.850121 -0.850132 -0.850144 -0.850157 -0.850171 -0.850186 -0.850202 
96 -0.850129 -0.850136 -0.850145 -0.850154 -0.850165 -0.850176 -0.850189 -0.850202 -0.850216 -0.85023 
97 -0.850102 -0.85011 -0.850118 -0.850128 -0.850139 -0.85015 -0.850163 -0.850176 -0.850191 -0.850206 
98 -0.850125 -0.850132 -0.85014 -0.850149 -0.85016 -0.850171 -0.850183 -0.850196 -0.85021 -0.850224 
99 -0.850283 -0.850285 -0.850289 -0.850293 -0.850299 -0.850305 -0.850312 -0.85032 -0.850329 -0.850339 
100 -0.849971 -0.849979 -0.849988 -0.849998 -0.85001 -0.850022 -0.850036 -0.850051 -0.850067 -0.850083 
101 -0.850127 -0.850134 -0.850142 -0.850151 -0.850161 -0.850172 -0.850184 -0.850197 -0.850211 -0.850225 
102 -0.850232 -0.850234 -0.850237 -0.850242 -0.850247 -0.850254 -0.850261 -0.850269 -0.850279 -0.850289 
103 -0.850117 -0.850124 -0.850133 -0.850142 -0.850152 -0.850164 -0.850176 -0.850189 -0.850203 -0.850218 
104 -0.850077 -0.850079 -0.850083 -0.850087 -0.850093 -0.8501 -0.850108 -0.850117 -0.850127 -0.850138 
105 -0.850141 -0.850152 -0.850164 -0.850177 -0.850191 -0.850206 -0.850222 -0.850238 -0.850255 -0.850273 
106 -0.850117 -0.850125 -0.850133 -0.850142 -0.850153 -0.850164 -0.850176 -0.850189 -0.850203 -0.850218 
107 -0.850125 -0.850132 -0.85014 -0.850149 -0.85016 -0.850171 -0.850183 -0.850196 -0.85021 -0.850224 
108 -0.850169 -0.850174 -0.850179 -0.850186 -0.850194 -0.850203 -0.850213 -0.850224 -0.850235 -0.850248 
109 -0.850259 -0.850265 -0.850272 -0.85028 -0.850289 -0.850299 -0.85031 -0.850321 -0.850333 -0.850346 
110 -0.850728 -0.850749 -0.85077 -0.850792 -0.850813 -0.850835 -0.850857 -0.850879 -0.850901 -0.850923 
111 -0.850789 -0.850774 -0.85076 -0.850747 -0.850735 -0.850724 -0.850714 -0.850704 -0.850696 -0.850689 
112 -0.850105 -0.850112 -0.85012 -0.85013 -0.85014 -0.850152 -0.850164 -0.850177 -0.850191 -0.850206 
113 -0.850125 -0.850132 -0.85014 -0.850149 -0.85016 -0.850171 -0.850183 -0.850196 -0.85021 -0.850224 
114 -0.850332 -0.850341 -0.850351 -0.850362 -0.850373 -0.850385 -0.850399 -0.850412 -0.850427 -0.850442 
115 -0.848546 -0.848569 -0.848593 -0.84862 -0.848648 -0.848678 -0.848709 -0.848742 -0.848777 -0.848813 
116 -0.850344 -0.850344 -0.850346 -0.850348 -0.850352 -0.850357 -0.850362 -0.850368 -0.850376 -0.850384 
117 -0.851455 -0.851456 -0.851456 -0.851456 -0.851456 -0.851456 -0.851455 -0.851454 -0.851453 -0.851452 
118 -0.849555 -0.849599 -0.849644 -0.849689 -0.849736 -0.849784 -0.849832 -0.849881 -0.84993 -0.849981 
119 -0.850005 -0.850041 -0.850077 -0.850114 -0.850151 -0.850189 -0.850228 -0.850266 -0.850305 -0.850344 
120 -0.85181 -0.851843 -0.851876 -0.85191 -0.851944 -0.851977 -0.852011 -0.852044 -0.852077 -0.85211 
121 -0.84913 -0.849081 -0.849034 -0.848989 -0.848947 -0.848906 -0.848868 -0.848832 -0.848797 -0.848765 
122 -0.848992 -0.849061 -0.849132 -0.849203 -0.849276 -0.849349 -0.849423 -0.849498 -0.849574 -0.84965 
123 -0.8502 -0.850234 -0.850268 -0.850303 -0.850338 -0.850372 -0.850407 -0.850441 -0.850476 -0.85051 
124 -0.851973 -0.851947 -0.851921 -0.851895 -0.851871 -0.851847 -0.851824 -0.851801 -0.851779 -0.851757 
125 -0.849817 -0.849792 -0.849769 -0.849748 -0.849729 -0.849712 -0.849697 -0.849685 -0.849674 -0.849666 
126 -0.850125 -0.850132 -0.85014 -0.850149 -0.85016 -0.850171 -0.850183 -0.850196 -0.85021 -0.850224 
127 -0.847269 -0.847302 -0.847338 -0.847376 -0.847416 -0.847458 -0.847502 -0.847547 -0.847594 -0.847643 
128 -0.852848 -0.85281 -0.852772 -0.852735 -0.852699 -0.852663 -0.852627 -0.852593 -0.852559 -0.852525 
129 -0.856821 -0.856834 -0.856846 -0.856857 -0.856866 -0.856873 -0.856879 -0.856883 -0.856885 -0.856886 
130 -0.854409 -0.854411 -0.854414 -0.854417 -0.854419 -0.854421 -0.854424 -0.854426 -0.854428 -0.85443 
131 -0.846456 -0.846449 -0.846444 -0.846441 -0.84644 -0.846441 -0.846444 -0.84645 -0.846457 -0.846466 
132 -0.843918 -0.843924 -0.843934 -0.843946 -0.84396 -0.843976 -0.843995 -0.844016 -0.844039 -0.844064 
133 -0.851075 -0.851092 -0.851109 -0.851128 -0.851147 -0.851168 -0.85119 -0.851213 -0.851237 -0.851262 
134 -0.847107 -0.847098 -0.847092 -0.847088 -0.847087 -0.847089 -0.847093 -0.8471 -0.84711 -0.847122 
135 -0.844556 -0.844597 -0.84464 -0.844685 -0.844733 -0.844782 -0.844834 -0.844888 -0.844943 -0.845 
136 -0.850123 -0.85013 -0.850139 -0.850148 -0.850158 -0.850169 -0.850182 -0.850195 -0.850208 -0.850223 
137 -0.85031 -0.850317 -0.850325 -0.850334 -0.850344 -0.850355 -0.850366 -0.850378 -0.850391 -0.850404 
138 -0.852239 -0.852189 -0.85214 -0.852093 -0.852048 -0.852004 -0.851961 -0.85192 -0.851881 -0.851843 
139 -0.845465 -0.845486 -0.845508 -0.845532 -0.845556 -0.845583 -0.84561 -0.845639 -0.845668 -0.845699 
140 -0.849244 -0.849283 -0.849323 -0.849364 -0.849407 -0.849451 -0.849495 -0.849541 -0.849588 -0.849635 
141 -0.857571 -0.85763 -0.857687 -0.857743 -0.857797 -0.85785 -0.8579 -0.857949 -0.857996 -0.85804 
142 -0.842281 -0.842235 -0.842193 -0.842154 -0.842117 -0.842084 -0.842055 -0.842028 -0.842004 -0.841984 
143 -0.85489 -0.854899 -0.854908 -0.85492 -0.854932 -0.854945 -0.85496 -0.854976 -0.854993 -0.855011 
144 -0.850439 -0.85038 -0.85032 -0.85026 -0.8502 -0.850141 -0.850081 -0.850021 -0.849962 -0.849903 
145 -0.84477 -0.844764 -0.844759 -0.844755 -0.84475 -0.844746 -0.844742 -0.844738 -0.844734 -0.84473 
146 -0.851753 -0.8517 -0.85165 -0.851602 -0.851556 -0.851513 -0.851473 -0.851434 -0.851399 -0.851366 
147 -0.857431 -0.857487 -0.857543 -0.8576 -0.857657 -0.857715 -0.857773 -0.857831 -0.85789 -0.857948 
148 -0.842752 -0.842695 -0.84264 -0.842587 -0.842536 -0.842487 -0.84244 -0.842395 -0.842353 -0.842312 
149 -0.85671 -0.856714 -0.856718 -0.856722 -0.856726 -0.85673 -0.856735 -0.85674 -0.856745 -0.85675 
150 -0.853364 -0.853453 -0.853546 -0.853644 -0.853745 -0.85385 -0.853959 -0.854071 -0.854186 -0.854305 
151 -0.84424 -0.844222 -0.844206 -0.844192 -0.844181 -0.844172 -0.844166 -0.844161 -0.844158 -0.844158 
152 -0.846568 -0.846619 -0.846672 -0.846727 -0.846785 -0.846845 -0.846907 -0.846972 -0.847038 -0.847106 
153 -0.847504 -0.847387 -0.847273 -0.847162 -0.847055 -0.846951 -0.84685 -0.846754 -0.846662 -0.846575 
154 -0.845983 -0.845944 -0.845907 -0.845873 -0.845841 -0.845811 -0.845783 -0.845757 -0.845733 -0.84571 
155 -0.844806 -0.84483 -0.844854 -0.844878 -0.844902 -0.844926 -0.84495 -0.844973 -0.844996 -0.845019 
156 -0.857822 -0.857779 -0.857735 -0.857689 -0.857642 -0.857592 -0.857541 -0.857488 -0.857434 -0.857378 
157 -0.856755 -0.856702 -0.85665 -0.8566 -0.856552 -0.856506 -0.856462 -0.85642 -0.85638 -0.856344 
158 -0.84565 -0.845662 -0.845673 -0.845682 -0.845689 -0.845694 -0.845696 -0.845696 -0.845693 -0.845687 
159 -0.85022 -0.850243 -0.850266 -0.850289 -0.850314 -0.850338 -0.850363 -0.850389 -0.850414 -0.85044 
160 -0.85189 -0.851959 -0.852033 -0.852112 -0.852197 -0.852286 -0.85238 -0.852479 -0.852583 -0.852691 
161 -0.835841 -0.835842 -0.835845 -0.83585 -0.835857 -0.835865 -0.835875 -0.835886 -0.835898 -0.835911 
162 -0.844985 -0.844888 -0.844793 -0.8447 -0.84461 -0.844523 -0.844439 -0.844359 -0.844282 -0.844208 
163 -0.842696 -0.842753 -0.84281 -0.842867 -0.842925 -0.842983 -0.843041 -0.8431 -0.843159 -0.843219 
164 -0.859169 -0.8591 -0.85903 -0.85896 -0.858888 -0.858815 -0.85874 -0.858664 -0.858585 -0.858505 
165 -0.857291 -0.857294 -0.857298 -0.857304 -0.857311 -0.85732 -0.857331 -0.857344 -0.857358 -0.857375 
166 -0.836049 -0.836089 -0.836131 -0.836174 -0.836218 -0.836263 -0.836309 -0.836356 -0.836403 -0.83645 
167 -0.853787 -0.853707 -0.853627 -0.853548 -0.853471 -0.853395 -0.85332 -0.853245 -0.853172 -0.8531 
168 -0.838073 -0.838029 -0.837987 -0.837947 -0.837909 -0.837874 -0.837841 -0.837811 -0.837782 -0.837757 
169 -0.854869 -0.854887 -0.854911 -0.854938 -0.854971 -0.855009 -0.855053 -0.855101 -0.855155 -0.855215 
170 -0.864159 -0.86413 -0.864102 -0.864074 -0.864047 -0.864019 -0.863991 -0.863961 -0.86393 -0.863897 
171 -0.863876 -0.863889 -0.863899 -0.863906 -0.863909 -0.86391 -0.863906 -0.863897 -0.863884 -0.863867 
172 -0.841413 -0.841426 -0.84144 -0.841455 -0.841471 -0.841487 -0.841505 -0.841523 -0.841541 -0.84156 
173 -0.850125 -0.850132 -0.85014 -0.850149 -0.85016 -0.850171 -0.850183 -0.850196 -0.85021 -0.850224 
174 -0.862744 -0.862658 -0.862571 -0.862483 -0.862394 -0.862304 -0.862215 -0.862127 -0.862039 -0.861953 
175 -0.872112 -0.872067 -0.872026 -0.871988 -0.871953 -0.871922 -0.871894 -0.87187 -0.871848 -0.87183 
176 -0.844878 -0.844833 -0.844785 -0.844736 -0.844685 -0.844631 -0.844576 -0.844518 -0.844459 -0.844397 
177 -0.833925 -0.833912 -0.833901 -0.833892 -0.833884 -0.833877 -0.833871 -0.833866 -0.833861 -0.833857 
178 -0.870639 -0.870556 -0.870475 -0.870398 -0.870323 -0.870253 -0.870187 -0.870125 -0.870067 -0.870014 
179 -0.850125 -0.850132 -0.85014 -0.850149 -0.85016 -0.850171 -0.850183 -0.850196 -0.85021 -0.850224 
180 -0.85068 -0.850604 -0.850523 -0.850437 -0.850348 -0.850256 -0.850161 -0.850065 -0.849967 -0.849869 
181 -0.871925 -0.871955 -0.871985 -0.872016 -0.872046 -0.872075 -0.872104 -0.872131 -0.872156 -0.87218 
182 -0.828265 -0.828209 -0.828152 -0.828095 -0.828037 -0.82798 -0.827921 -0.827863 -0.827804 -0.827745 
183 -0.838155 -0.838097 -0.838035 -0.837968 -0.837897 -0.837822 -0.837743 -0.83766 -0.837573 -0.837482 
184 -0.834165 -0.834145 -0.834126 -0.834107 -0.834088 -0.834069 -0.83405 -0.834031 -0.834012 -0.833994 
185 -0.876145 -0.876134 -0.876127 -0.876124 -0.876125 -0.876128 -0.876134 -0.876143 -0.876153 -0.876164 
186 -0.888502 -0.888436 -0.888366 -0.888294 -0.88822 -0.888144 -0.888067 -0.887989 -0.88791 -0.887831 
187 -0.832442 -0.832407 -0.832377 -0.832352 -0.832331 -0.832314 -0.832301 -0.83229 -0.832282 -0.832277 
188 -0.863475 -0.863447 -0.863409 -0.863362 -0.863305 -0.863238 -0.863163 -0.86308 -0.862988 -0.862888 
189 -0.886357 -0.886319 -0.88627 -0.886212 -0.886144 -0.886067 -0.885983 -0.88589 -0.88579 -0.885685 
190 -0.84764 -0.8476 -0.84756 -0.84752 -0.847481 -0.847442 -0.847404 -0.847367 -0.84733 -0.847294 
191 -0.850125 -0.850132 -0.85014 -0.850149 -0.85016 -0.850171 -0.850183 -0.850196 -0.85021 -0.850224 
192 -0.809924 -0.809878 -0.809826 -0.809767 -0.809702 -0.809631 -0.809553 -0.809468 -0.809377 -0.809279 
193 -0.850125 -0.850132 -0.85014 -0.850149 -0.85016 -0.850171 -0.850183 -0.850196 -0.85021 -0.850224 
194 -0.85675 -0.8568 -0.856853 -0.856909 -0.856967 -0.857029 -0.857093 -0.85716 -0.85723 -0.857302 
195 -0.856697 -0.856648 -0.856582 -0.856498 -0.856397 -0.856277 -0.856139 -0.855984 -0.855812 -0.855623 
196 -0.84609 -0.84614 -0.84619 -0.84624 -0.846288 -0.846335 -0.846382 -0.846427 -0.846471 -0.846513 
197 -0.846693 -0.84663 -0.846569 -0.846509 -0.846452 -0.846395 -0.846341 -0.846289 -0.846238 -0.846189 
198 -0.850125 -0.850132 -0.85014 -0.850149 -0.85016 -0.850171 -0.850183 -0.850196 -0.85021 -0.850224 
199 -0.795941 -0.79585 -0.79576 -0.795672 -0.795585 -0.7955 -0.795418 -0.795338 -0.79526 -0.795185 
200 -0.834611 -0.834571 -0.834516 -0.834447 -0.834363 -0.834264 -0.83415 -0.834021 -0.833877 -0.833718 
201 -0.906614 -0.90658 -0.906531 -0.906468 -0.90639 -0.906298 -0.906193 -0.906074 -0.905943 -0.9058 
202 -0.850125 -0.850132 -0.85014 -0.850149 -0.85016 -0.850171 -0.850183 -0.850196 -0.85021 -0.850224 
203 -0.868046 -0.868118 -0.868191 -0.868265 -0.868338 -0.868411 -0.868483 -0.868554 -0.868623 -0.86869 
204 -0.850017 -0.850046 -0.850076 -0.850106 -0.850138 -0.85017 -0.850203 -0.850236 -0.85027 -0.850305 
205 -0.895633 -0.895583 -0.895528 -0.895468 -0.895406 -0.89534 -0.895271 -0.895201 -0.895129 -0.895056 
206 -0.850125 -0.850132 -0.85014 -0.850149 -0.85016 -0.850171 -0.850183 -0.850196 -0.85021 -0.850224 
207 -0.77576 -0.775702 -0.775638 -0.775568 -0.775492 -0.77541 -0.775321 -0.775225 -0.775123 -0.775014 
208 -0.863802 -0.863694 -0.863564 -0.863412 -0.863239 -0.863045 -0.862829 -0.862594 -0.862338 -0.862065 
209 -0.89 -0.889983 -0.889965 -0.889947 -0.889927 -0.889907 -0.889886 -0.889864 -0.889843 -0.889821 
210 -0.920194 -0.920101 -0.919988 -0.919855 -0.919703 -0.919532 -0.919342 -0.919134 -0.918909 -0.918668 
211 -0.850125 -0.850132 -0.85014 -0.850149 -0.85016 -0.850171 -0.850183 -0.850196 -0.85021 -0.850224 
212 -0.850125 -0.850132 -0.85014 -0.850149 -0.85016 -0.850171 -0.850183 -0.850196 -0.85021 -0.850224 
213 -0.841681 -0.841742 -0.841804 -0.841869 -0.841936 -0.842005 -0.842076 -0.842149 -0.842223 -0.842299 
214 -0.762289 -0.762203 -0.762114 -0.762023 -0.761931 -0.761836 -0.761741 -0.761644 -0.761546 -0.761447 
215 -0.79682 -0.796792 -0.796748 -0.796685 -0.796603 -0.796502 -0.796382 -0.796242 -0.796083 -0.795904 
216 -0.80428 -0.804271 -0.804244 -0.804196 -0.804129 -0.804041 -0.803932 -0.803802 -0.803651 -0.80348 
217 -0.849971 -0.850048 -0.850129 -0.850214 -0.850303 -0.850395 -0.85049 -0.850589 -0.85069 -0.850794 
218 -0.849248 -0.849132 -0.848989 -0.84882 -0.848624 -0.848401 -0.848152 -0.847877 -0.847576 -0.847251 
219 -0.850309 -0.850313 -0.850319 -0.850325 -0.850333 -0.850342 -0.850351 -0.850361 -0.850373 -0.850385 
220 -0.949094 -0.949097 -0.949087 -0.949062 -0.949023 -0.94897 -0.948903 -0.948821 -0.948725 -0.948614 
221 -0.789933 -0.789912 -0.789879 -0.789833 -0.789772 -0.789698 -0.789609 -0.789506 -0.789388 -0.789256 
222 -0.741772 -0.741632 -0.741465 -0.741273 -0.741054 -0.740809 -0.740538 -0.740242 -0.739921 -0.739576 
223 -0.903916 -0.903914 -0.903897 -0.903863 -0.903812 -0.903744 -0.903657 -0.903553 -0.903431 -0.903291 
224 -0.920802 -0.920805 -0.920796 -0.920774 -0.920741 -0.920696 -0.920639 -0.920571 -0.920492 -0.920403 
225 -0.82971 -0.82964 -0.829575 -0.829515 -0.829459 -0.829408 -0.829362 -0.829321 -0.829285 -0.829253 
226 -0.801253 -0.801155 -0.801055 -0.800955 -0.800856 -0.800759 -0.800665 -0.800575 -0.800488 -0.800407 
227 -0.891969 -0.891919 -0.891853 -0.891769 -0.891667 -0.891546 -0.891406 -0.891248 -0.891069 -0.890872 
228 -0.820616 -0.820532 -0.82045 -0.820372 -0.820298 -0.820228 -0.820163 -0.820104 -0.82005 -0.820002 
229 -0.850125 -0.850132 -0.85014 -0.850149 -0.85016 -0.850171 -0.850183 -0.850196 -0.85021 -0.850224 
230 -0.850125 -0.850132 -0.85014 -0.850149 -0.85016 -0.850171 -0.850183 -0.850196 -0.85021 -0.850224 
231 -0.850125 -0.850132 -0.85014 -0.850149 -0.850159 -0.850171 -0.850183 -0.850196 -0.85021 -0.850224 
232 -1.10168 -1.10152 -1.10133 -1.10111 -1.10086 -1.10058 -1.10026 -1.09992 -1.09954 -1.09914 
233 -0.850121 -0.850128 -0.850136 -0.850145 -0.850155 -0.850167 -0.850179 -0.850192 -0.850205 -0.85022 
234 -0.983862 -0.983854 -0.98383 -0.983792 -0.983737 -0.983667 -0.983581 -0.983479 -0.983362 -0.983229 
235 -0.647141 -0.647139 -0.647125 -0.647096 -0.647051 -0.646989 -0.646908 -0.646807 -0.646683 -0.646538 
236 -0.91076 -0.910776 -0.910781 -0.910777 -0.910764 -0.910742 -0.910711 -0.910671 -0.910624 -0.91057 
237 -1.1158 -1.11568 -1.11554 -1.11537 -1.11517 -1.11495 -1.1147 -1.11442 -1.11411 -1.11378 
238 -0.850759 -0.850756 -0.850755 -0.850755 -0.850756 -0.850758 -0.850761 -0.850766 -0.850771 -0.850777 
239 -0.704811 -0.704869 -0.704919 -0.70496 -0.704989 -0.705005 -0.705006 -0.704991 -0.704956 -0.704902 
240 -0.762356 -0.762285 -0.762209 -0.762129 -0.762045 -0.761958 -0.761868 -0.761775 -0.76168 -0.761584 
241 -0.728413 -0.728379 -0.728336 -0.728285 -0.728225 -0.728155 -0.728076 -0.727988 -0.72789 -0.727783 
242 -0.850125 -0.850132 -0.85014 -0.850149 -0.85016 -0.850171 -0.850183 -0.850196 -0.85021 -0.850224 
243 -0.988806 -0.988803 -0.988788 -0.988761 -0.988721 -0.988668 -0.988603 -0.988526 -0.988436 -0.988335 
244 -1.12277 -1.12268 -1.12257 -1.12243 -1.12227 -1.12209 -1.12189 -1.12167 -1.12143 -1.12116 
245 -0.518871 -0.518804 -0.518732 -0.518654 -0.518569 -0.518476 -0.518374 -0.518262 -0.518141 -0.518009 
246 -1.05162 -1.0516 -1.05157 -1.05152 -1.05145 -1.05137 -1.05127 -1.05115 -1.05102 -1.05087 
247 -0.851387 -0.851414 -0.851437 -0.851458 -0.851477 -0.851492 -0.851505 -0.851514 -0.851521 -0.851524 
248 -0.850125 -0.850132 -0.85014 -0.850149 -0.85016 -0.850171 -0.850183 -0.850196 -0.85021 -0.850224 
249 -0.607352 -0.607276 -0.607191 -0.607095 -0.606988 -0.606871 -0.606742 -0.606602 -0.60645 -0.606286 
250 -0.813217 -0.813101 -0.812986 -0.812872 -0.812761 -0.812655 -0.812553 -0.812458 -0.81237 -0.81229 
251 -0.768379 -0.768259 -0.768136 -0.768013 -0.76789 -0.767769 -0.767651 -0.767537 -0.767428 -0.767325 
252 -0.737571 -0.737564 -0.73755 -0.737529 -0.737501 -0.737467 -0.737425 -0.737376 -0.737319 -0.737255 
253 -0.850125 -0.850132 -0.85014 -0.850149 -0.850159 -0.850171 -0.850183 -0.850196 -0.85021 -0.850224 
254 -0.8811 -0.881079 -0.881061 -0.881044 -0.881031 -0.88102 -0.881012 -0.881008 -0.881006 -0.881008 
255 -0.850177 -0.850183 -0.85019 -0.850197 -0.850206 -0.850216 -0.850226 -0.850238 -0.85025 -0.850263 
256 -0.854575 -0.854618 -0.854665 -0.854716 -0.85477 -0.854828 -0.854889 -0.854954 -0.855022 -0.855093 
257 -1.04586 -1.04589 -1.04591 -1.04593 -1.04594 -1.04594 -1.04594 -1.04592 -1.0459 -1.04588 
258 -0.822428 -0.822332 -0.822242 -0.822156 -0.822077 -0.822005 -0.821939 -0.82188 -0.821829 -0.821785 
259 -0.869088 -0.869117 -0.86915 -0.869188 -0.869231 -0.869278 -0.869329 -0.869385 -0.869444 -0.869506 
260 -0.626622 -0.62653 -0.626436 -0.626338 -0.626238 -0.626136 -0.62603 -0.625922 -0.62581 -0.625696 
261 -0.994504 -0.994515 -0.994517 -0.994509 -0.994492 -0.994464 -0.994427 -0.99438 -0.994325 -0.99426 
262 -1.0264 -1.02641 -1.02641 -1.02641 -1.02639 -1.02637 -1.02635 -1.02631 -1.02627 -1.02623 
263 -0.850122 -0.850129 -0.850137 -0.850146 -0.850156 -0.850167 -0.850179 -0.850191 -0.850205 -0.850219 
264 -0.83324 -0.833193 -0.83315 -0.833113 -0.833081 -0.833054 -0.833032 -0.833015 -0.833004 -0.832998 
265 -0.709798 -0.709765 -0.709728 -0.709686 -0.709639 -0.709588 -0.709532 -0.709472 -0.709408 -0.709339 
266 -0.669432 -0.669395 -0.669356 -0.669314 -0.669271 -0.669225 -0.669176 -0.669123 -0.669067 -0.669008 
267 -0.909569 -0.909561 -0.909548 -0.90953 -0.909507 -0.90948 -0.909449 -0.909414 -0.909376 -0.909335 
268 -0.84064 -0.840624 -0.840615 -0.840613 -0.840619 -0.840632 -0.840653 -0.840682 -0.840719 -0.840763 
269 -0.850125 -0.850132 -0.85014 -0.850149 -0.85016 -0.850171 -0.850183 -0.850196 -0.85021 -0.850224 
270 -1.00618 -1.00616 -1.00615 -1.00613 -1.00611 -1.00609 -1.00606 -1.00603 -1.006 -1.00596 
271 -0.966636 -0.966636 -0.966628 -0.966613 -0.966591 -0.966562 -0.966526 -0.966483 -0.966434 -0.966379 
272 -0.689852 -0.689774 -0.68969 -0.689601 -0.689508 -0.689411 -0.689311 -0.689209 -0.689106 -0.689002 
273 -0.773188 -0.773075 -0.772954 -0.772826 -0.772693 -0.772556 -0.772418 -0.772278 -0.77214 -0.772005 
274 -0.732987 -0.732958 -0.732926 -0.73289 -0.732852 -0.732811 -0.732768 -0.732724 -0.732677 -0.73263 
275 -0.849038 -0.849042 -0.849048 -0.849055 -0.849063 -0.849073 -0.849084 -0.849096 -0.849109 -0.849123 
276 -0.977747 -0.977743 -0.977735 -0.977723 -0.977708 -0.977689 -0.977666 -0.97764 -0.977612 -0.97758 
277 -0.850125 -0.850132 -0.85014 -0.850149 -0.85016 -0.850171 -0.850183 -0.850196 -0.85021 -0.850224 
278 -0.713404 -0.713348 -0.713292 -0.713237 -0.713184 -0.713133 -0.713085 -0.713039 -0.712995 -0.712954 
279 -0.763315 -0.763252 -0.763184 -0.763114 -0.763042 -0.762969 -0.762896 -0.762824 -0.762754 -0.762686 
280 -0.936679 -0.93668 -0.936676 -0.936667 -0.936654 -0.936637 -0.936615 -0.93659 -0.936561 -0.93653 
281 -0.821755 -0.821703 -0.821644 -0.821577 -0.821503 -0.821422 -0.821333 -0.821238 -0.821137 -0.821031 
282 -0.93897 -0.938954 -0.938937 -0.938921 -0.938906 -0.938891 -0.938877 -0.938864 -0.938851 -0.93884 
283 -0.893994 -0.893981 -0.893967 -0.893954 -0.893941 -0.893929 -0.893919 -0.893909 -0.893902 -0.893897 
284 -0.798407 -0.798318 -0.79822 -0.798113 -0.797999 -0.797878 -0.797752 -0.797621 -0.797487 -0.797351 
285 -0.745133 -0.745166 -0.74518 -0.745174 -0.745148 -0.745103 -0.745039 -0.744957 -0.744858 -0.744745 
286 -0.850125 -0.850132 -0.85014 -0.850149 -0.85016 -0.850171 -0.850183 -0.850196 -0.85021 -0.850224 
287 -0.777657 -0.777702 -0.777744 -0.777783 -0.777818 -0.777849 -0.777875 -0.777897 -0.777913 -0.777925 
288 -0.92604 -0.926032 -0.926024 -0.926015 -0.926006 -0.925997 -0.925988 -0.925979 -0.92597 -0.925962 
289 -0.827737 -0.827726 -0.827716 -0.827706 -0.827696 -0.827685 -0.827673 -0.827659 -0.827643 -0.827625 
290 -0.915958 -0.915941 -0.915923 -0.915903 -0.915884 -0.915864 -0.915844 -0.915824 -0.915805 -0.915788 