VARIABLES = "Cell" "Mode 0" "Mode 1" "Mode 2" "Mode 3" "Mode 4" "Mode 5" "Mode 6" "Mode 7" "Mode 8" "Mode 9" 
ZONE T = Iteration40
0 -0.855906 -0.855982 -0.856049 -0.856103 -0.856152 -0.856208 -0.856282 -0.856372 -0.856467 -0.856561 
1 -0.855906 -0.855982 -0.856049 -0.856103 -0.856152 -0.856208 -0.856282 -0.856372 -0.856467 -0.856561 
2 -0.855906 -0.855982 -0.856049 -0.856103 -0.856152 -0.856208 -0.856282 -0.856372 -0.856467 -0.856561 
3 -0.855906 -0.855982 -0.856049 -0.856103 -0.856152 -0.856208 -0.856282 -0.856372 -0.856467 -0.856561 
4 -0.855906 -0.855982 -0.856049 -0.856103 -0.856152 -0.856208 -0.856282 -0.856372 -0.856467 -0.856561 
5 -0.855906 -0.855982 -0.856049 -0.856103 -0.856152 -0.856208 -0.856282 -0.856372 -0.856467 -0.856561 
6 -0.855906 -0.855982 -0.856049 -0.856103 -0.856152 -0.856208 -0.856282 -0.856372 -0.856467 -0.856561 
7 -0.855906 -0.855982 -0.856049 -0.856103 -0.856152 -0.856208 -0.856282 -0.856372 -0.856467 -0.856561 
8 -0.855906 -0.855982 -0.856049 -0.856103 -0.856152 -0.856208 -0.856282 -0.856372 -0.856467 -0.856561 
9 -0.855906 -0.855982 -0.856049 -0.856103 -0.856152 -0.856208 -0.856282 -0.856372 -0.856467 -0.856561 
10 -0.855906 -0.855982 -0.856049 -0.856103 -0.856152 -0.856208 -0.856282 -0.856372 -0.856467 -0.856561 
11 -0.855906 -0.855982 -0.856049 -0.856103 -0.856152 -0.856208 -0.856282 -0.856372 -0.856467 -0.856561 
12 -0.855906 -0.855982 -0.856049 -0.856103 -0.856152 -0.856208 -0.856282 -0.856372 -0.856467 -0.856561 
13 -0.855906 -0.855982 -0.856049 -0.856103 -0.856152 -0.856208 -0.856282 -0.856372 -0.856467 -0.856561 
14 -0.855906 -0.855982 -0.856049 -0.856103 -0.856152 -0.856208 -0.856282 -0.856372 -0.856467 -0.856561 
15 -0.855906 -0.855982 -0.856049 -0.856103 -0.856152 -0.856208 -0.856282 -0.856372 -0.856467 -0.856561 
16 -0.855906 -0.855982 -0.856049 -0.856103 -0.856152 -0.856208 -0.856282 -0.856372 -0.856467 -0.856561 
17 -0.855906 -0.855982 -0.856049 -0.856103 -0.856152 -0.856208 -0.856282 -0.856372 -0.856467 -0.856561 
18 -0.855906 -0.855982 -0.856049 -0.856103 -0.856152 -0.856208 -0.856282 -0.856372 -0.856467 -0.856561 
19 -0.855906 -0.855982 -0.856049 -0.856103 -0.856152 -0.856208 -0.856282 -0.856372 -0.856467 -0.856561 
20 -0.855906 -0.855982 -0.856049 -0.856103 -0.856152 -0.856208 -0.856282 -0.856372 -0.856467 -0.856561 
21 -0.855906 -0.855982 -0.856049 -0.856103 -0.856152 -0.856208 -0.856282 -0.856372 -0.856467 -0.856561 
22 -0.855906 -0.855982 -0.856049 -0.856103 -0.856152 -0.856208 -0.856282 -0.856372 -0.856467 -0.856561 
23 -0.855906 -0.855982 -0.856049 -0.856103 -0.856152 -0.856208 -0.856282 -0.856372 -0.856467 -0.856561 
24 -0.855906 -0.855982 -0.856049 -0.856103 -0.856152 -0.856208 -0.856282 -0.856372 -0.856467 -0.856561 
25 -0.855906 -0.855982 -0.856049 -0.856103 -0.856152 -0.856208 -0.856282 -0.856372 -0.856467 -0.856561 
26 -0.855906 -0.855982 -0.856049 -0.856103 -0.856152 -0.856208 -0.856282 -0.856372 -0.856467 -0.856561 
27 -0.855906 -0.855982 -0.856049 -0.856103 -0.856152 -0.856208 -0.856282 -0.856372 -0.856467 -0.856561 
28 -0.855906 -0.855982 -0.856049 -0.856103 -0.856152 -0.856208 -0.856282 -0.856372 -0.856467 -0.856561 
29 -0.855906 -0.855982 -0.856049 -0.856103 -0.856152 -0.856208 -0.856282 -0.856372 -0.856467 -0.856561 
30 -0.855906 -0.855982 -0.856049 -0.856103 -0.856152 -0.856208 -0.856282 -0.856372 -0.856467 -0.856561 
31 -0.855906 -0.855982 -0.856049 -0.856103 -0.856152 -0.856208 -0.856282 -0.856372 -0.856467 -0.856561 
32 -0.855906 -0.855982 -0.856049 -0.856103 -0.856152 -0.856208 -0.856282 -0.856372 -0.856467 -0.856561 
33 -0.855906 -0.855982 -0.856049 -0.856103 -0.856152 -0.856208 -0.856282 -0.856372 -0.856467 -0.856561 
34 -0.855906 -0.855982 -0.856049 -0.856103 -0.856152 -0.856208 -0.856282 -0.856372 -0.856467 -0.856561 
35 -0.855906 -0.855982 -0.856049 -0.856103 -0.856152 -0.856208 -0.856282 -0.856372 -0.856467 -0.856561 
36 -0.855906 -0.855982 -0.856049 -0.856103 -0.856152 -0.856208 -0.856282 -0.856372 -0.856467 -0.856561 
37 -0.855906 -0.855982 -0.856049 -0.856103 -0.856152 -0.856208 -0.856282 -0.856372 -0.856467 -0.856561 
38 -0.855906 -0.855982 -0.856049 -0.856103 -0.856152 -0.856208 -0.856282 -0.856372 -0.856467 -0.856561 
39 -0.855906 -0.855982 -0.856049 -0.856103 -0.856152 -0.856208 -0.856282 -0.856372 -0.856467 -0.856561 
40 -0.855906 -0.855982 -0.856049 -0.856103 -0.856152 -0.856208 -0.856282 -0.856372 -0.856467 -0.856561 
41 -0.855906 -0.855982 -0.856049 -0.856103 -0.856152 -0.856208 -0.856282 -0.856372 -0.856467 -0.856561 
42 -0.855906 -0.855982 -0.856049 -0.856103 -0.856152 -0.856208 -0.856282 -0.856372 -0.856467 -0.856561 
43 -0.855906 -0.855982 -0.856049 -0.856103 -0.856152 -0.856208 -0.856282 -0.856372 -0.856467 -0.856561 
44 -0.855906 -0.855982 -0.856049 -0.856103 -0.856152 -0.856208 -0.856282 -0.856372 -0.856467 -0.856561 
45 -0.855906 -0.855982 -0.856049 -0.856103 -0.856152 -0.856208 -0.856282 -0.856372 -0.856467 -0.856561 
46 -0.855906 -0.855982 -0.856049 -0.856103 -0.856152 -0.856208 -0.856282 -0.856372 -0.856467 -0.856561 
47 -0.855906 -0.855982 -0.856049 -0.856103 -0.856152 -0.856208 -0.856282 -0.856372 -0.856467 -0.856561 
48 -0.855906 -0.855982 -0.856049 -0.856103 -0.856152 -0.856208 -0.856282 -0.856372 -0.856467 -0.856561 
49 -0.855906 -0.855982 -0.856049 -0.856103 -0.856152 -0.856208 -0.856282 -0.856372 -0.856467 -0.856561 
50 -0.855906 -0.855982 -0.856049 -0.856103 -0.856152 -0.856208 -0.856282 -0.856372 -0.856467 -0.856561 
51 -0.855906 -0.855982 -0.856049 -0.856103 -0.856152 -0.856208 -0.856282 -0.856372 -0.856467 -0.856561 
52 -0.855906 -0.855982 -0.856049 -0.856103 -0.856152 -0.856208 -0.856282 -0.856372 -0.856467 -0.856561 
53 -0.855906 -0.855982 -0.856049 -0.856103 -0.856152 -0.856208 -0.856282 -0.856372 -0.856467 -0.856561 
54 -0.855906 -0.855982 -0.856049 -0.856103 -0.856152 -0.856208 -0.856282 -0.856372 -0.856467 -0.856561 
55 -0.855906 -0.855982 -0.856049 -0.856103 -0.856152 -0.856208 -0.856282 -0.856372 -0.856467 -0.856561 
56 -0.855906 -0.855982 -0.856049 -0.856103 -0.856152 -0.856208 -0.856282 -0.856372 -0.856467 -0.856561 
57 -0.855906 -0.855982 -0.856049 -0.856103 -0.856152 -0.856208 -0.856282 -0.856372 -0.856467 -0.856561 
58 -0.855906 -0.855982 -0.856049 -0.856103 -0.856152 -0.856208 -0.856282 -0.856372 -0.856467 -0.856561 
59 -0.855906 -0.855982 -0.856049 -0.856103 -0.856152 -0.856208 -0.856282 -0.856372 -0.856467 -0.856561 
60 -0.855906 -0.855982 -0.856049 -0.856103 -0.856152 -0.856208 -0.856282 -0.856372 -0.856467 -0.856561 
61 -0.855906 -0.855982 -0.856049 -0.856103 -0.856152 -0.856208 -0.856282 -0.856372 -0.856467 -0.856561 
62 -0.855906 -0.855982 -0.856049 -0.856103 -0.856152 -0.856208 -0.856282 -0.856372 -0.856467 -0.856561 
63 -0.855906 -0.855982 -0.856049 -0.856103 -0.856152 -0.856208 -0.856282 -0.856372 -0.856467 -0.856561 
64 -0.855906 -0.855982 -0.856049 -0.856103 -0.856152 -0.856208 -0.856282 -0.856372 -0.856467 -0.856561 
65 -0.855906 -0.855982 -0.856049 -0.856103 -0.856152 -0.856208 -0.856282 -0.856372 -0.856467 -0.856561 
66 -0.855906 -0.855982 -0.856049 -0.856103 -0.856152 -0.856208 -0.856282 -0.856372 -0.856467 -0.856561 
67 -0.855906 -0.855982 -0.856049 -0.856103 -0.856152 -0.856208 -0.856282 -0.856372 -0.856467 -0.856561 
68 -0.855906 -0.855982 -0.856049 -0.856103 -0.856152 -0.856208 -0.856282 -0.856372 -0.856467 -0.856561 
69 -0.855906 -0.855982 -0.856049 -0.856103 -0.856152 -0.856208 -0.856282 -0.856372 -0.856467 -0.856561 
70 -0.855906 -0.855982 -0.856049 -0.856103 -0.856152 -0.856208 -0.856282 -0.856372 -0.856467 -0.856561 
71 -0.855906 -0.855982 -0.856049 -0.856103 -0.856152 -0.856208 -0.856282 -0.856372 -0.856467 -0.856561 
72 -0.855906 -0.855982 -0.856049 -0.856103 -0.856152 -0.856208 -0.856282 -0.856372 -0.856467 -0.856561 
73 -0.855906 -0.855982 -0.856049 -0.856103 -0.856152 -0.856208 -0.856282 -0.856372 -0.856467 -0.856561 
74 -0.855906 -0.855982 -0.856049 -0.856103 -0.856152 -0.856208 -0.856282 -0.856372 -0.856467 -0.856561 
75 -0.855906 -0.855982 -0.856049 -0.856103 -0.856152 -0.856208 -0.856282 -0.856372 -0.856467 -0.856561 
76 -0.855906 -0.855982 -0.856049 -0.856103 -0.856152 -0.856208 -0.856282 -0.856372 -0.856467 -0.856561 
77 -0.855906 -0.855982 -0.856049 -0.856103 -0.856152 -0.856208 -0.856282 -0.856372 -0.856467 -0.856561 
78 -0.855906 -0.855982 -0.856049 -0.856103 -0.856152 -0.856208 -0.856282 -0.856372 -0.856467 -0.856561 
79 -0.855906 -0.855982 -0.856049 -0.856103 -0.856152 -0.856208 -0.856282 -0.856372 -0.856467 -0.856561 
80 -0.855906 -0.855982 -0.856049 -0.856103 -0.856152 -0.856208 -0.856282 -0.856372 -0.856467 -0.856561 
81 -0.855906 -0.855982 -0.856049 -0.856103 -0.856152 -0.856208 -0.856282 -0.856372 -0.856467 -0.856561 
82 -0.855906 -0.855982 -0.856049 -0.856103 -0.856152 -0.856208 -0.856282 -0.856372 -0.856467 -0.856561 
83 -0.855906 -0.855982 -0.856049 -0.856103 -0.856152 -0.856208 -0.856282 -0.856372 -0.856467 -0.856561 
84 -0.855906 -0.855982 -0.856049 -0.856103 -0.856152 -0.856208 -0.856282 -0.856372 -0.856467 -0.856561 
85 -0.855906 -0.855982 -0.856049 -0.856103 -0.856152 -0.856208 -0.856282 -0.856372 -0.856467 -0.856561 
86 -0.855906 -0.855982 -0.856049 -0.856103 -0.856152 -0.856208 -0.856282 -0.856372 -0.856467 -0.856561 
87 -0.855906 -0.855982 -0.856049 -0.856103 -0.856152 -0.856208 -0.856282 -0.856372 -0.856467 -0.856561 
88 -0.855906 -0.855982 -0.856049 -0.856103 -0.856152 -0.856208 -0.856282 -0.856372 -0.856467 -0.856561 
89 -0.855906 -0.855982 -0.856049 -0.856103 -0.856152 -0.856208 -0.856282 -0.856372 -0.856467 -0.856561 
90 -0.855906 -0.855982 -0.856049 -0.856103 -0.856152 -0.856208 -0.856282 -0.856372 -0.856467 -0.856561 
91 -0.855906 -0.855982 -0.856049 -0.856103 -0.856152 -0.856208 -0.856282 -0.856372 -0.856467 -0.856561 
92 -0.855906 -0.855982 -0.856049 -0.856103 -0.856152 -0.856208 -0.856282 -0.856372 -0.856467 -0.856561 
93 -0.855906 -0.855982 -0.856049 -0.856103 -0.856152 -0.856208 -0.856282 -0.856372 -0.856467 -0.856561 
94 -0.855906 -0.855982 -0.856049 -0.856103 -0.856152 -0.856208 -0.856282 -0.856372 -0.856467 -0.856561 
95 -0.855906 -0.855982 -0.856049 -0.856103 -0.856152 -0.856208 -0.856282 -0.856372 -0.856467 -0.856561 
96 -0.855906 -0.855982 -0.856049 -0.856103 -0.856152 -0.856208 -0.856282 -0.856372 -0.856467 -0.856561 
97 -0.855906 -0.855982 -0.856049 -0.856103 -0.856152 -0.856208 -0.856282 -0.856372 -0.856467 -0.856561 
98 -0.855906 -0.855982 -0.856049 -0.856103 -0.856152 -0.856208 -0.856282 -0.856372 -0.856467 -0.856561 
99 -0.855906 -0.855982 -0.856049 -0.856103 -0.856152 -0.856208 -0.856282 -0.856372 -0.856467 -0.856561 
100 -0.855906 -0.855982 -0.856049 -0.856103 -0.856152 -0.856208 -0.856282 -0.856372 -0.856467 -0.856561 
101 -0.855906 -0.855982 -0.856049 -0.856103 -0.856152 -0.856208 -0.856282 -0.856372 -0.856467 -0.856561 
102 -0.855906 -0.855982 -0.856049 -0.856103 -0.856152 -0.856208 -0.856282 -0.856372 -0.856467 -0.856561 
103 -0.855906 -0.855982 -0.856049 -0.856103 -0.856152 -0.856208 -0.856282 -0.856372 -0.856467 -0.856561 
104 -0.855906 -0.855982 -0.856049 -0.856103 -0.856152 -0.856208 -0.856282 -0.856372 -0.856467 -0.856561 
105 -0.855906 -0.855982 -0.856049 -0.856103 -0.856152 -0.856208 -0.856282 -0.856372 -0.856467 -0.856561 
106 -0.855906 -0.855982 -0.856049 -0.856103 -0.856152 -0.856208 -0.856282 -0.856372 -0.856467 -0.856561 
107 -0.855906 -0.855982 -0.856049 -0.856103 -0.856152 -0.856208 -0.856282 -0.856372 -0.856467 -0.856561 
108 -0.855906 -0.855982 -0.856049 -0.856103 -0.856152 -0.856208 -0.856282 -0.856372 -0.856467 -0.856561 
109 -0.855906 -0.855982 -0.856049 -0.856103 -0.856152 -0.856208 -0.856282 -0.856372 -0.856467 -0.856561 
110 -0.855906 -0.855982 -0.856049 -0.856103 -0.856152 -0.856208 -0.856282 -0.856372 -0.856467 -0.856561 
111 -0.855906 -0.855982 -0.856049 -0.856103 -0.856152 -0.856208 -0.856282 -0.856372 -0.856467 -0.856561 
112 -0.855906 -0.855982 -0.856049 -0.856103 -0.856152 -0.856208 -0.856282 -0.856372 -0.856467 -0.856561 
113 -0.855906 -0.855982 -0.856049 -0.856103 -0.856152 -0.856208 -0.856282 -0.856372 -0.856467 -0.856561 
114 -0.855906 -0.855982 -0.856049 -0.856103 -0.856152 -0.856208 -0.856282 -0.856372 -0.856467 -0.856561 
115 -0.855906 -0.855982 -0.856049 -0.856103 -0.856152 -0.856208 -0.856282 -0.856372 -0.856467 -0.856561 
116 -0.855906 -0.855982 -0.856049 -0.856103 -0.856152 -0.856208 -0.856282 -0.856372 -0.856467 -0.856561 
117 -0.855906 -0.855982 -0.856049 -0.856104 -0.856152 -0.856208 -0.856282 -0.856372 -0.856467 -0.856561 
118 -0.855906 -0.855982 -0.856049 -0.856103 -0.856152 -0.856208 -0.856282 -0.856372 -0.856467 -0.856561 
119 -0.855906 -0.855982 -0.856049 -0.856103 -0.856152 -0.856208 -0.856282 -0.856372 -0.856467 -0.856561 
120 -0.855906 -0.855982 -0.856049 -0.856104 -0.856152 -0.856209 -0.856283 -0.856372 -0.856467 -0.856561 
121 -0.855907 -0.855983 -0.85605 -0.856104 -0.856153 -0.856209 -0.856282 -0.856372 -0.856467 -0.856561 
122 -0.855905 -0.855982 -0.856049 -0.856103 -0.856152 -0.856208 -0.856282 -0.856372 -0.856467 -0.856561 
123 -0.855906 -0.855982 -0.856049 -0.856104 -0.856152 -0.856208 -0.856282 -0.856372 -0.856467 -0.856561 
124 -0.855906 -0.855982 -0.856049 -0.856103 -0.856152 -0.856208 -0.856282 -0.856372 -0.856467 -0.856561 
125 -0.85591 -0.855985 -0.85605 -0.856104 -0.856152 -0.856208 -0.856281 -0.856371 -0.856465 -0.856559 
126 -0.855906 -0.855982 -0.856049 -0.856103 -0.856152 -0.856208 -0.856282 -0.856372 -0.856467 -0.856561 
127 -0.855901 -0.855979 -0.856046 -0.856101 -0.856151 -0.856207 -0.856282 -0.856372 -0.856467 -0.856561 
128 -0.855907 -0.855983 -0.85605 -0.856104 -0.856153 -0.856209 -0.856283 -0.856372 -0.856467 -0.856561 
129 -0.855902 -0.85598 -0.856047 -0.856102 -0.856152 -0.856208 -0.856282 -0.856372 -0.856467 -0.856561 
130 -0.855906 -0.855982 -0.856048 -0.856102 -0.856151 -0.856207 -0.856281 -0.85637 -0.856465 -0.85656 
131 -0.855907 -0.855983 -0.85605 -0.856104 -0.856152 -0.856209 -0.856282 -0.856372 -0.856466 -0.85656 
132 -0.855903 -0.855979 -0.856046 -0.856101 -0.85615 -0.856207 -0.856281 -0.856371 -0.856466 -0.85656 
133 -0.855878 -0.855959 -0.85603 -0.856088 -0.856141 -0.8562 -0.856277 -0.856368 -0.856465 -0.85656 
134 -0.855918 -0.855994 -0.85606 -0.856114 -0.856162 -0.856217 -0.856289 -0.856377 -0.856471 -0.856564 
135 -0.855885 -0.855965 -0.856035 -0.856093 -0.856144 -0.856203 -0.856279 -0.85637 -0.856466 -0.856561 
136 -0.855906 -0.855982 -0.856049 -0.856103 -0.856152 -0.856208 -0.856282 -0.856372 -0.856467 -0.856561 
137 -0.855906 -0.855982 -0.856049 -0.856103 -0.856152 -0.856208 -0.856282 -0.856372 -0.856467 -0.856561 
138 -0.856072 -0.856154 -0.856219 -0.856267 -0.856305 -0.856347 -0.856404 -0.856476 -0.856552 -0.856628 
139 -0.85591 -0.855956 -0.856 -0.856039 -0.856077 -0.856128 -0.856202 -0.856294 -0.856395 -0.856497 
140 -0.855906 -0.855982 -0.856049 -0.856103 -0.856152 -0.856208 -0.856282 -0.856372 -0.856467 -0.856561 
141 -0.855958 -0.856026 -0.856084 -0.856131 -0.856173 -0.856224 -0.856292 -0.856378 -0.856469 -0.856561 
142 -0.855842 -0.855932 -0.856012 -0.856077 -0.856136 -0.8562 -0.856281 -0.856376 -0.856474 -0.856571 
143 -0.855912 -0.855986 -0.856051 -0.856105 -0.856152 -0.856208 -0.856281 -0.856371 -0.856465 -0.856559 
144 -0.855479 -0.855555 -0.855634 -0.855713 -0.855794 -0.85589 -0.856008 -0.856145 -0.856286 -0.856425 
145 -0.85587 -0.855955 -0.856029 -0.85609 -0.856145 -0.856206 -0.856284 -0.856376 -0.856473 -0.856568 
146 -0.856275 -0.856325 -0.856362 -0.856383 -0.856397 -0.856417 -0.856455 -0.85651 -0.856572 -0.856636 
147 -0.855904 -0.855981 -0.856048 -0.856103 -0.856152 -0.856208 -0.856282 -0.856372 -0.856467 -0.856561 
148 -0.855918 -0.855994 -0.85606 -0.856113 -0.856161 -0.856215 -0.856288 -0.856376 -0.85647 -0.856562 
149 -0.855953 -0.856066 -0.85616 -0.856232 -0.85629 -0.856348 -0.856417 -0.856497 -0.856579 -0.856658 
150 -0.85601 -0.856069 -0.856119 -0.856157 -0.856192 -0.856235 -0.856299 -0.856379 -0.856467 -0.856556 
151 -0.856638 -0.856604 -0.856563 -0.856515 -0.856467 -0.856436 -0.856432 -0.856454 -0.856493 -0.856541 
152 -0.855905 -0.855982 -0.856049 -0.856103 -0.856152 -0.856208 -0.856282 -0.856372 -0.856467 -0.856561 
153 -0.854962 -0.855273 -0.855553 -0.855796 -0.856009 -0.856202 -0.856387 -0.856561 -0.856716 -0.856847 
154 -0.856985 -0.856842 -0.856698 -0.856553 -0.856419 -0.856312 -0.856246 -0.856219 -0.856222 -0.856249 
155 -0.856439 -0.856389 -0.85634 -0.856291 -0.856249 -0.856229 -0.85624 -0.856281 -0.856339 -0.856409 
156 -0.853266 -0.853302 -0.85339 -0.853521 -0.853696 -0.853921 -0.8542 -0.85452 -0.854863 -0.855214 
157 -0.855039 -0.855286 -0.855515 -0.855722 -0.85591 -0.856089 -0.856269 -0.856447 -0.85661 -0.856753 
158 -0.85566 -0.855736 -0.855811 -0.855881 -0.85595 -0.856031 -0.856132 -0.85625 -0.856372 -0.856493 
159 -0.855906 -0.855982 -0.856049 -0.856103 -0.856152 -0.856208 -0.856282 -0.856372 -0.856467 -0.856561 
160 -0.855725 -0.855848 -0.855953 -0.85604 -0.856114 -0.856189 -0.856277 -0.856377 -0.856477 -0.856574 
161 -0.850151 -0.851087 -0.852026 -0.852956 -0.853871 -0.854771 -0.855651 -0.856493 -0.857271 -0.857965 
162 -0.854887 -0.855337 -0.855738 -0.856083 -0.856374 -0.856624 -0.856839 -0.857019 -0.857154 -0.857243 
163 -0.859965 -0.859975 -0.859901 -0.859747 -0.859526 -0.859261 -0.85897 -0.858666 -0.858351 -0.858032 
164 -0.85496 -0.854389 -0.853836 -0.853309 -0.852828 -0.85242 -0.852111 -0.851911 -0.85182 -0.851843 
165 -0.853498 -0.853588 -0.85373 -0.853913 -0.854134 -0.854398 -0.854703 -0.855036 -0.855378 -0.855712 
166 -0.857066 -0.857738 -0.8583 -0.858746 -0.85908 -0.859316 -0.859469 -0.859542 -0.859534 -0.859449 
167 -0.858598 -0.858198 -0.857777 -0.857346 -0.856925 -0.85654 -0.856215 -0.855959 -0.85577 -0.855649 
168 -0.854375 -0.855154 -0.855852 -0.856457 -0.856968 -0.857393 -0.857738 -0.858001 -0.858174 -0.858258 
169 -0.854527 -0.85489 -0.855221 -0.855514 -0.85577 -0.856001 -0.856217 -0.856416 -0.856589 -0.856734 
170 -0.86685 -0.865576 -0.864243 -0.862872 -0.861501 -0.860171 -0.858926 -0.857792 -0.856787 -0.855929 
171 -0.853692 -0.852889 -0.852249 -0.851778 -0.851481 -0.85137 -0.851445 -0.85169 -0.852075 -0.852571 
172 -0.858559 -0.859371 -0.860029 -0.860519 -0.860843 -0.861016 -0.861052 -0.860961 -0.860749 -0.860434 
173 -0.855906 -0.855982 -0.856049 -0.856103 -0.856152 -0.856208 -0.856282 -0.856372 -0.856467 -0.856561 
174 -0.869824 -0.869864 -0.869969 -0.870148 -0.870416 -0.870784 -0.871246 -0.871773 -0.872317 -0.872826 
175 -0.893311 -0.89325 -0.892978 -0.892449 -0.891627 -0.890486 -0.889006 -0.887167 -0.88496 -0.882395 
176 -0.841037 -0.841074 -0.841053 -0.840962 -0.8408 -0.840577 -0.840307 -0.840001 -0.83967 -0.839337 
177 -0.833398 -0.83463 -0.836092 -0.837785 -0.839709 -0.841861 -0.844222 -0.846748 -0.849375 -0.85203 
178 -0.892095 -0.892467 -0.892673 -0.892658 -0.89237 -0.891763 -0.890792 -0.88941 -0.88758 -0.885289 
179 -0.855906 -0.855982 -0.856049 -0.856103 -0.856152 -0.856208 -0.856282 -0.856372 -0.856467 -0.856561 
180 -0.856672 -0.857045 -0.85748 -0.857984 -0.858566 -0.85923 -0.859958 -0.860708 -0.861419 -0.86203 
181 -0.881002 -0.8797 -0.878237 -0.876616 -0.87486 -0.873002 -0.871082 -0.869132 -0.867181 -0.865267 
182 -0.817341 -0.817308 -0.817306 -0.817346 -0.817449 -0.817647 -0.81797 -0.818439 -0.819068 -0.819875 
183 -0.832867 -0.832317 -0.831636 -0.830807 -0.829825 -0.828705 -0.827473 -0.82616 -0.824808 -0.823487 
184 -0.84604 -0.848225 -0.850391 -0.8525 -0.854519 -0.85642 -0.858173 -0.859738 -0.861069 -0.862133 
185 -0.90038 -0.89887 -0.896946 -0.894608 -0.891878 -0.888803 -0.885445 -0.881866 -0.878138 -0.874345 
186 -0.89577 -0.895914 -0.896002 -0.895999 -0.895896 -0.895701 -0.895428 -0.895078 -0.894647 -0.89415 
187 -0.817034 -0.817017 -0.817176 -0.817537 -0.818137 -0.819025 -0.820248 -0.821842 -0.823833 -0.826242 
188 -0.86655 -0.866625 -0.866766 -0.866982 -0.867258 -0.867564 -0.867878 -0.868189 -0.868494 -0.868773 
189 -0.887857 -0.888036 -0.88825 -0.888497 -0.888804 -0.889221 -0.889795 -0.890544 -0.891445 -0.892461 
190 -0.855896 -0.855975 -0.856044 -0.856101 -0.856151 -0.856208 -0.856283 -0.856373 -0.856468 -0.856562 
191 -0.855906 -0.855982 -0.856049 -0.856103 -0.856152 -0.856208 -0.856282 -0.856372 -0.856467 -0.856561 
192 -0.804244 -0.804041 -0.80374 -0.803299 -0.802736 -0.802136 -0.801596 -0.801158 -0.800795 -0.800478 
193 -0.855906 -0.855982 -0.856049 -0.856103 -0.856152 -0.856208 -0.856282 -0.856372 -0.856467 -0.856561 
194 -0.859445 -0.858716 -0.858035 -0.857407 -0.856845 -0.856369 -0.85599 -0.855709 -0.855514 -0.855395 
195 -0.853481 -0.853526 -0.853482 -0.853339 -0.853088 -0.852736 -0.852311 -0.851867 -0.851472 -0.851206 
196 -0.856365 -0.856325 -0.856286 -0.856249 -0.856219 -0.856212 -0.856238 -0.856293 -0.856366 -0.85645 
197 -0.855908 -0.855984 -0.856051 -0.856105 -0.856154 -0.85621 -0.856284 -0.856373 -0.856467 -0.856561 
198 -0.855906 -0.855982 -0.856049 -0.856103 -0.856152 -0.856208 -0.856282 -0.856372 -0.856467 -0.856561 
199 -0.780897 -0.780608 -0.780327 -0.780095 -0.779966 -0.779992 -0.780204 -0.780613 -0.781206 -0.781962 
200 -0.831265 -0.831424 -0.831388 -0.83112 -0.830679 -0.830189 -0.829764 -0.829438 -0.829197 -0.82903 
201 -0.909511 -0.91008 -0.910774 -0.911699 -0.912909 -0.914326 -0.915755 -0.917008 -0.918026 -0.918882 
202 -0.855906 -0.855982 -0.856049 -0.856103 -0.856152 -0.856208 -0.856282 -0.856372 -0.856467 -0.856561 
203 -0.873168 -0.871293 -0.869443 -0.867638 -0.865908 -0.864289 -0.862811 -0.861487 -0.86032 -0.859312 
204 -0.855797 -0.855892 -0.855976 -0.856046 -0.856109 -0.856178 -0.856262 -0.85636 -0.856462 -0.856561 
205 -0.902925 -0.903576 -0.904312 -0.905118 -0.906004 -0.906999 -0.908137 -0.909435 -0.910887 -0.91248 
206 -0.855906 -0.855982 -0.856049 -0.856103 -0.856152 -0.856208 -0.856282 -0.856372 -0.856467 -0.856561 
207 -0.773241 -0.773897 -0.774609 -0.775273 -0.775785 -0.77612 -0.776317 -0.77642 -0.776448 -0.776439 
208 -0.860283 -0.86027 -0.86013 -0.859729 -0.859006 -0.858133 -0.857495 -0.857444 -0.858009 -0.858856 
209 -0.906287 -0.906154 -0.906003 -0.905877 -0.905831 -0.905921 -0.906188 -0.906643 -0.90726 -0.907992 
210 -0.92122 -0.921459 -0.921591 -0.921739 -0.922114 -0.92286 -0.923903 -0.924969 -0.925765 -0.926164 
211 -0.855906 -0.855982 -0.856049 -0.856103 -0.856152 -0.856208 -0.856282 -0.856372 -0.856467 -0.856561 
212 -0.855906 -0.855982 -0.856049 -0.856103 -0.856152 -0.856208 -0.856282 -0.856372 -0.856467 -0.856561 
213 -0.859238 -0.859144 -0.858985 -0.858768 -0.858513 -0.858245 -0.857986 -0.857747 -0.857528 -0.857333 
214 -0.758058 -0.758505 -0.758911 -0.759258 -0.759593 -0.759996 -0.76052 -0.761171 -0.761925 -0.762765 
215 -0.794798 -0.795464 -0.795744 -0.796054 -0.796822 -0.79798 -0.798962 -0.799268 -0.798965 -0.79855 
216 -0.801378 -0.801216 -0.800679 -0.79986 -0.799146 -0.798719 -0.798295 -0.797574 -0.796863 -0.796928 
217 -0.85538 -0.855489 -0.855592 -0.855687 -0.855779 -0.85588 -0.855999 -0.856133 -0.85627 -0.856404 
218 -0.837114 -0.837087 -0.837537 -0.83841 -0.839177 -0.839362 -0.839129 -0.839222 -0.840228 -0.841973 
219 -0.855906 -0.855982 -0.856049 -0.856104 -0.856152 -0.856208 -0.856282 -0.856372 -0.856467 -0.856561 
220 -0.942281 -0.941444 -0.94114 -0.941103 -0.940673 -0.939685 -0.938956 -0.939558 -0.941502 -0.943387 
221 -0.79185 -0.792968 -0.794137 -0.7954 -0.796583 -0.797394 -0.797686 -0.797595 -0.797389 -0.797195 
222 -0.729651 -0.730875 -0.731846 -0.732362 -0.732804 -0.73386 -0.735695 -0.7375 -0.738161 -0.737479 
223 -0.894711 -0.894226 -0.893803 -0.893658 -0.893664 -0.893413 -0.892782 -0.892383 -0.893134 -0.89523 
224 -0.924705 -0.925773 -0.927082 -0.928629 -0.93035 -0.932061 -0.933501 -0.9345 -0.935097 -0.935472 
225 -0.81797 -0.818595 -0.819434 -0.820525 -0.821911 -0.823638 -0.825737 -0.828209 -0.831025 -0.834132 
226 -0.789987 -0.789178 -0.788326 -0.787486 -0.78673 -0.786134 -0.785762 -0.785638 -0.785745 -0.786024 
227 -0.879206 -0.879347 -0.879724 -0.880838 -0.882532 -0.884075 -0.884964 -0.885427 -0.886017 -0.886927 
228 -0.805377 -0.804736 -0.804127 -0.803506 -0.802842 -0.802117 -0.801331 -0.800501 -0.799677 -0.798961 
229 -0.855906 -0.855982 -0.856049 -0.856103 -0.856152 -0.856208 -0.856282 -0.856372 -0.856467 -0.856561 
230 -0.855906 -0.855982 -0.856049 -0.856103 -0.856152 -0.856208 -0.856282 -0.856372 -0.856467 -0.856561 
231 -0.855906 -0.855982 -0.856049 -0.856103 -0.856152 -0.856208 -0.856282 -0.856372 -0.856467 -0.856561 
232 -1.07097 -1.07279 -1.07323 -1.07292 -1.07391 -1.07724 -1.0813 -1.08329 -1.08282 -1.08311 
233 -0.855906 -0.855982 -0.856049 -0.856103 -0.856152 -0.856208 -0.856282 -0.856372 -0.856467 -0.856561 
234 -0.975818 -0.975645 -0.975703 -0.975791 -0.975775 -0.975936 -0.97685 -0.978748 -0.981016 -0.982554 
235 -0.650809 -0.652359 -0.655431 -0.658887 -0.660788 -0.660688 -0.660382 -0.661953 -0.665247 -0.667742 
236 -0.918947 -0.92054 -0.922343 -0.924223 -0.926015 -0.927584 -0.928884 -0.92995 -0.93083 -0.931553 
237 -1.08855 -1.09035 -1.09089 -1.09116 -1.0931 -1.0971 -1.10094 -1.10191 -1.10033 -1.10028 
238 -0.855905 -0.855982 -0.856049 -0.856103 -0.856152 -0.856208 -0.856282 -0.856372 -0.856467 -0.856561 
239 -0.710058 -0.711571 -0.715053 -0.718944 -0.720872 -0.720579 -0.720495 -0.722857 -0.726625 -0.728427 
240 -0.770533 -0.77127 -0.771929 -0.772414 -0.772582 -0.772345 -0.771733 -0.770846 -0.7698 -0.768722 
241 -0.73512 -0.736567 -0.737646 -0.738402 -0.739093 -0.739921 -0.740811 -0.741388 -0.74121 -0.740094 
242 -0.855906 -0.855982 -0.856049 -0.856103 -0.856152 -0.856208 -0.856282 -0.856372 -0.856467 -0.856561 
243 -0.984307 -0.984489 -0.984609 -0.984546 -0.984577 -0.985153 -0.986346 -0.987616 -0.988309 -0.988394 
244 -1.10301 -1.1027 -1.10176 -1.10189 -1.10385 -1.10627 -1.10702 -1.1059 -1.10551 -1.10827 
245 -0.522167 -0.524838 -0.52811 -0.529547 -0.52848 -0.52668 -0.526439 -0.528279 -0.53074 -0.532204 
246 -1.03939 -1.03864 -1.03797 -1.0383 -1.03955 -1.04058 -1.04057 -1.04027 -1.04134 -1.04403 
247 -0.855828 -0.855901 -0.855968 -0.856026 -0.856081 -0.856145 -0.856228 -0.856327 -0.856431 -0.856534 
248 -0.855906 -0.855982 -0.856049 -0.856103 -0.856152 -0.856208 -0.856282 -0.856372 -0.856467 -0.856561 
249 -0.610203 -0.612287 -0.613919 -0.614352 -0.613986 -0.6139 -0.614699 -0.615943 -0.616679 -0.61638 
250 -0.797715 -0.79648 -0.795266 -0.794094 -0.792968 -0.791874 -0.790769 -0.78958 -0.788216 -0.786607 
251 -0.775743 -0.775602 -0.775183 -0.774439 -0.773385 -0.772117 -0.770779 -0.769522 -0.76849 -0.767837 
252 -0.750315 -0.751059 -0.751705 -0.752414 -0.753093 -0.75344 -0.753199 -0.75233 -0.750939 -0.749105 
253 -0.855906 -0.855982 -0.856049 -0.856103 -0.856152 -0.856208 -0.856282 -0.856372 -0.856467 -0.856561 
254 -0.906641 -0.907713 -0.908832 -0.90999 -0.911179 -0.912376 -0.913543 -0.914619 -0.91552 -0.916152 
255 -0.855906 -0.855982 -0.856049 -0.856103 -0.856152 -0.856208 -0.856282 -0.856372 -0.856467 -0.856561 
256 -0.855709 -0.855549 -0.855426 -0.855336 -0.855282 -0.855275 -0.855319 -0.855411 -0.855533 -0.855677 
257 -1.04389 -1.04282 -1.04238 -1.04266 -1.04271 -1.04192 -1.04111 -1.04171 -1.0436 -1.04466 
258 -0.795938 -0.794723 -0.79369 -0.792874 -0.792337 -0.792165 -0.792462 -0.793332 -0.794875 -0.797188 
259 -0.898946 -0.899443 -0.899878 -0.900217 -0.900424 -0.900471 -0.900322 -0.899929 -0.899243 -0.898224 
260 -0.629772 -0.631319 -0.632041 -0.632022 -0.632101 -0.632885 -0.633979 -0.634405 -0.633857 -0.633232 
261 -0.993496 -0.993432 -0.993399 -0.993193 -0.992837 -0.992638 -0.992821 -0.993201 -0.993392 -0.993382 
262 -1.02368 -1.02324 -1.02301 -1.02279 -1.0223 -1.02174 -1.02167 -1.02228 -1.02292 -1.02276 
263 -0.855906 -0.855982 -0.856049 -0.856103 -0.856152 -0.856208 -0.856282 -0.856372 -0.856467 -0.856561 
264 -0.824858 -0.827184 -0.829703 -0.832383 -0.835194 -0.838099 -0.841049 -0.843975 -0.846797 -0.84944 
265 -0.722207 -0.722521 -0.722227 -0.721867 -0.721729 -0.721399 -0.72016 -0.717922 -0.715489 -0.713538 
266 -0.677791 -0.678542 -0.678573 -0.67818 -0.677856 -0.677701 -0.677296 -0.676258 -0.674868 -0.673804 
267 -0.924096 -0.924771 -0.925351 -0.925749 -0.925946 -0.926032 -0.92615 -0.926361 -0.926594 -0.926753 
268 -0.849391 -0.850894 -0.852307 -0.853603 -0.854767 -0.855792 -0.856676 -0.857408 -0.857975 -0.858377 
269 -0.855906 -0.855982 -0.856049 -0.856103 -0.856152 -0.856208 -0.856282 -0.856372 -0.856467 -0.856561 
270 -1.00622 -1.00593 -1.00529 -1.00447 -1.00409 -1.00445 -1.00501 -1.00463 -1.00292 -1.00104 
271 -0.970668 -0.970627 -0.970393 -0.970176 -0.970224 -0.970478 -0.970563 -0.970262 -0.969932 -0.97024 
272 -0.698016 -0.69821 -0.698678 -0.699075 -0.698605 -0.697109 -0.695773 -0.696184 -0.698312 -0.699854 
273 -0.781523 -0.780631 -0.779525 -0.778257 -0.776933 -0.775668 -0.77453 -0.773578 -0.772945 -0.772827 
274 -0.743151 -0.742492 -0.741818 -0.741109 -0.740086 -0.738612 -0.736952 -0.735459 -0.733927 -0.731583 
275 -0.855906 -0.855982 -0.856049 -0.856104 -0.856152 -0.856208 -0.856282 -0.856372 -0.856467 -0.856561 
276 -0.980783 -0.980437 -0.979958 -0.979562 -0.979534 -0.97979 -0.979778 -0.979034 -0.977916 -0.977579 
277 -0.855906 -0.855982 -0.856049 -0.856103 -0.856152 -0.856208 -0.856282 -0.856372 -0.856467 -0.856561 
278 -0.720705 -0.720351 -0.719939 -0.71925 -0.718062 -0.716623 -0.715681 -0.71576 -0.716334 -0.716053 
279 -0.774142 -0.773263 -0.772376 -0.771404 -0.770313 -0.76917 -0.767978 -0.766528 -0.764574 -0.762294 
280 -0.945092 -0.944876 -0.94471 -0.944606 -0.944487 -0.944301 -0.944171 -0.944341 -0.944898 -0.945531 
281 -0.807448 -0.806952 -0.806429 -0.805876 -0.805283 -0.804633 -0.803884 -0.802961 -0.801766 -0.800224 
282 -0.944356 -0.94541 -0.946501 -0.947408 -0.947787 -0.94746 -0.946684 -0.946052 -0.945999 -0.946365 
283 -0.915127 -0.915606 -0.916002 -0.916341 -0.916675 -0.917067 -0.917559 -0.918178 -0.918956 -0.919955 
284 -0.79846 -0.79749 -0.796409 -0.795319 -0.794337 -0.793572 -0.793112 -0.792984 -0.793122 -0.793357 
285 -0.749625 -0.749845 -0.749637 -0.749009 -0.748551 -0.748813 -0.749469 -0.749378 -0.747834 -0.745651 
286 -0.855906 -0.855982 -0.856049 -0.856103 -0.856152 -0.856208 -0.856282 -0.856372 -0.856467 -0.856561 