VARIABLES = "Cell" "Mode 0" "Mode 1" "Mode 2" "Mode 3" "Mode 4" "Mode 5" "Mode 6" "Mode 7" "Mode 8" "Mode 9" 
ZONE T = Iteration51
0 -0.854752 -0.854873 -0.854992 -0.855108 -0.85522 -0.855329 -0.855439 -0.855546 -0.855647 -0.85574 
1 -0.854752 -0.854873 -0.854992 -0.855108 -0.85522 -0.855329 -0.855439 -0.855546 -0.855647 -0.85574 
2 -0.854752 -0.854873 -0.854992 -0.855108 -0.85522 -0.855329 -0.855439 -0.855546 -0.855647 -0.85574 
3 -0.854752 -0.854873 -0.854992 -0.855108 -0.85522 -0.855329 -0.855439 -0.855546 -0.855647 -0.85574 
4 -0.854752 -0.854873 -0.854992 -0.855108 -0.85522 -0.855329 -0.855439 -0.855546 -0.855647 -0.85574 
5 -0.854752 -0.854873 -0.854992 -0.855108 -0.85522 -0.855329 -0.855439 -0.855546 -0.855647 -0.85574 
6 -0.854752 -0.854873 -0.854992 -0.855108 -0.85522 -0.855329 -0.855439 -0.855546 -0.855647 -0.85574 
7 -0.854752 -0.854873 -0.854992 -0.855108 -0.85522 -0.855329 -0.855439 -0.855546 -0.855647 -0.85574 
8 -0.854752 -0.854873 -0.854992 -0.855108 -0.85522 -0.855329 -0.855439 -0.855546 -0.855647 -0.85574 
9 -0.854752 -0.854873 -0.854992 -0.855108 -0.85522 -0.855329 -0.855439 -0.855546 -0.855647 -0.85574 
10 -0.854752 -0.854873 -0.854992 -0.855108 -0.85522 -0.855329 -0.855439 -0.855546 -0.855647 -0.85574 
11 -0.854752 -0.854873 -0.854992 -0.855108 -0.85522 -0.855329 -0.855439 -0.855546 -0.855647 -0.85574 
12 -0.854752 -0.854873 -0.854992 -0.855108 -0.85522 -0.855329 -0.855439 -0.855546 -0.855647 -0.85574 
13 -0.854752 -0.854873 -0.854992 -0.855108 -0.85522 -0.855329 -0.855439 -0.855546 -0.855647 -0.85574 
14 -0.854752 -0.854873 -0.854992 -0.855108 -0.85522 -0.855329 -0.855439 -0.855546 -0.855647 -0.85574 
15 -0.854752 -0.854873 -0.854992 -0.855108 -0.85522 -0.855329 -0.855439 -0.855546 -0.855647 -0.85574 
16 -0.854752 -0.854873 -0.854992 -0.855108 -0.85522 -0.855329 -0.855439 -0.855546 -0.855647 -0.85574 
17 -0.854752 -0.854873 -0.854992 -0.855108 -0.85522 -0.855329 -0.855439 -0.855546 -0.855647 -0.85574 
18 -0.854752 -0.854873 -0.854992 -0.855108 -0.85522 -0.855329 -0.855439 -0.855546 -0.855647 -0.85574 
19 -0.854752 -0.854873 -0.854992 -0.855108 -0.85522 -0.855329 -0.855439 -0.855546 -0.855647 -0.85574 
20 -0.854752 -0.854873 -0.854992 -0.855108 -0.85522 -0.855329 -0.855439 -0.855546 -0.855647 -0.85574 
21 -0.854752 -0.854873 -0.854992 -0.855108 -0.85522 -0.855329 -0.855439 -0.855546 -0.855647 -0.85574 
22 -0.854752 -0.854873 -0.854992 -0.855108 -0.85522 -0.855329 -0.855439 -0.855546 -0.855647 -0.85574 
23 -0.854752 -0.854873 -0.854992 -0.855108 -0.85522 -0.855329 -0.855439 -0.855546 -0.855647 -0.85574 
24 -0.854752 -0.854873 -0.854992 -0.855108 -0.85522 -0.855329 -0.855439 -0.855546 -0.855647 -0.85574 
25 -0.854752 -0.854873 -0.854992 -0.855108 -0.85522 -0.855329 -0.855439 -0.855546 -0.855647 -0.85574 
26 -0.854752 -0.854873 -0.854992 -0.855108 -0.85522 -0.855329 -0.855439 -0.855546 -0.855647 -0.85574 
27 -0.854752 -0.854873 -0.854992 -0.855108 -0.85522 -0.855329 -0.855439 -0.855546 -0.855647 -0.85574 
28 -0.854752 -0.854873 -0.854992 -0.855108 -0.85522 -0.855329 -0.855439 -0.855546 -0.855647 -0.85574 
29 -0.854752 -0.854873 -0.854992 -0.855108 -0.85522 -0.855329 -0.855439 -0.855546 -0.855647 -0.85574 
30 -0.854752 -0.854873 -0.854992 -0.855108 -0.85522 -0.855329 -0.855439 -0.855546 -0.855647 -0.85574 
31 -0.854752 -0.854873 -0.854992 -0.855108 -0.85522 -0.855329 -0.855439 -0.855546 -0.855647 -0.85574 
32 -0.854752 -0.854873 -0.854992 -0.855108 -0.85522 -0.855329 -0.855439 -0.855546 -0.855647 -0.85574 
33 -0.854752 -0.854873 -0.854992 -0.855108 -0.85522 -0.855329 -0.855439 -0.855546 -0.855647 -0.85574 
34 -0.854752 -0.854873 -0.854992 -0.855108 -0.85522 -0.855329 -0.855439 -0.855546 -0.855647 -0.85574 
35 -0.854752 -0.854873 -0.854992 -0.855108 -0.85522 -0.855329 -0.855439 -0.855546 -0.855647 -0.85574 
36 -0.854752 -0.854873 -0.854992 -0.855108 -0.85522 -0.855329 -0.855439 -0.855546 -0.855647 -0.85574 
37 -0.854752 -0.854873 -0.854992 -0.855108 -0.85522 -0.855329 -0.855439 -0.855546 -0.855647 -0.85574 
38 -0.854752 -0.854873 -0.854992 -0.855108 -0.85522 -0.855329 -0.855439 -0.855546 -0.855647 -0.85574 
39 -0.854752 -0.854873 -0.854992 -0.855108 -0.85522 -0.855329 -0.855439 -0.855546 -0.855647 -0.85574 
40 -0.854752 -0.854873 -0.854992 -0.855108 -0.85522 -0.855329 -0.855439 -0.855546 -0.855647 -0.85574 
41 -0.854752 -0.854873 -0.854992 -0.855108 -0.85522 -0.855329 -0.855439 -0.855546 -0.855647 -0.85574 
42 -0.854752 -0.854873 -0.854992 -0.855108 -0.85522 -0.855329 -0.855439 -0.855546 -0.855647 -0.85574 
43 -0.854752 -0.854873 -0.854992 -0.855108 -0.85522 -0.855329 -0.855439 -0.855546 -0.855647 -0.85574 
44 -0.854752 -0.854873 -0.854992 -0.855108 -0.85522 -0.855329 -0.855439 -0.855546 -0.855647 -0.85574 
45 -0.854752 -0.854873 -0.854992 -0.855108 -0.85522 -0.855329 -0.855439 -0.855546 -0.855647 -0.85574 
46 -0.854752 -0.854873 -0.854992 -0.855108 -0.85522 -0.855329 -0.855439 -0.855546 -0.855647 -0.85574 
47 -0.854752 -0.854873 -0.854992 -0.855108 -0.85522 -0.855329 -0.855439 -0.855546 -0.855647 -0.85574 
48 -0.854752 -0.854873 -0.854992 -0.855108 -0.85522 -0.855329 -0.855439 -0.855546 -0.855647 -0.85574 
49 -0.854752 -0.854873 -0.854992 -0.855108 -0.85522 -0.855329 -0.855439 -0.855546 -0.855647 -0.85574 
50 -0.854752 -0.854873 -0.854992 -0.855108 -0.85522 -0.855329 -0.855439 -0.855546 -0.855647 -0.85574 
51 -0.854752 -0.854873 -0.854992 -0.855108 -0.85522 -0.855329 -0.855439 -0.855546 -0.855647 -0.85574 
52 -0.854752 -0.854873 -0.854992 -0.855108 -0.85522 -0.855329 -0.855439 -0.855546 -0.855647 -0.85574 
53 -0.854752 -0.854873 -0.854992 -0.855108 -0.85522 -0.855329 -0.855439 -0.855546 -0.855647 -0.85574 
54 -0.854752 -0.854873 -0.854992 -0.855108 -0.85522 -0.855329 -0.855439 -0.855546 -0.855647 -0.85574 
55 -0.854752 -0.854873 -0.854992 -0.855108 -0.85522 -0.855329 -0.855439 -0.855546 -0.855647 -0.85574 
56 -0.854752 -0.854873 -0.854992 -0.855108 -0.85522 -0.855329 -0.855439 -0.855546 -0.855647 -0.85574 
57 -0.854752 -0.854873 -0.854992 -0.855108 -0.85522 -0.855329 -0.855439 -0.855546 -0.855647 -0.85574 
58 -0.854752 -0.854873 -0.854992 -0.855108 -0.85522 -0.855329 -0.855439 -0.855546 -0.855647 -0.85574 
59 -0.854752 -0.854873 -0.854992 -0.855108 -0.85522 -0.855329 -0.855439 -0.855546 -0.855647 -0.85574 
60 -0.854752 -0.854873 -0.854992 -0.855108 -0.85522 -0.855329 -0.855439 -0.855546 -0.855647 -0.85574 
61 -0.854752 -0.854873 -0.854992 -0.855108 -0.85522 -0.855329 -0.855439 -0.855546 -0.855647 -0.85574 
62 -0.854752 -0.854873 -0.854992 -0.855108 -0.85522 -0.855329 -0.855439 -0.855546 -0.855647 -0.85574 
63 -0.854752 -0.854873 -0.854992 -0.855108 -0.85522 -0.855329 -0.855439 -0.855546 -0.855647 -0.85574 
64 -0.854752 -0.854873 -0.854992 -0.855108 -0.85522 -0.855329 -0.855439 -0.855546 -0.855647 -0.85574 
65 -0.854752 -0.854873 -0.854992 -0.855108 -0.85522 -0.855329 -0.855439 -0.855546 -0.855647 -0.85574 
66 -0.854752 -0.854873 -0.854992 -0.855108 -0.85522 -0.855329 -0.855439 -0.855546 -0.855647 -0.85574 
67 -0.854752 -0.854873 -0.854992 -0.855108 -0.85522 -0.855329 -0.855439 -0.855546 -0.855647 -0.85574 
68 -0.854752 -0.854873 -0.854992 -0.855108 -0.85522 -0.855329 -0.855439 -0.855546 -0.855647 -0.85574 
69 -0.854752 -0.854873 -0.854992 -0.855108 -0.85522 -0.855329 -0.855439 -0.855546 -0.855647 -0.85574 
70 -0.854752 -0.854873 -0.854992 -0.855108 -0.85522 -0.855329 -0.855439 -0.855546 -0.855647 -0.85574 
71 -0.854752 -0.854873 -0.854992 -0.855108 -0.85522 -0.855329 -0.855439 -0.855546 -0.855647 -0.85574 
72 -0.854752 -0.854873 -0.854992 -0.855108 -0.85522 -0.855329 -0.855439 -0.855546 -0.855647 -0.85574 
73 -0.854752 -0.854873 -0.854992 -0.855108 -0.85522 -0.855329 -0.855439 -0.855546 -0.855647 -0.85574 
74 -0.854752 -0.854873 -0.854992 -0.855108 -0.85522 -0.855329 -0.855439 -0.855546 -0.855647 -0.85574 
75 -0.854752 -0.854873 -0.854992 -0.855108 -0.85522 -0.855329 -0.855439 -0.855546 -0.855647 -0.85574 
76 -0.854752 -0.854873 -0.854992 -0.855108 -0.85522 -0.855329 -0.855439 -0.855546 -0.855647 -0.85574 
77 -0.854752 -0.854873 -0.854992 -0.855108 -0.85522 -0.855329 -0.855439 -0.855546 -0.855647 -0.85574 
78 -0.854752 -0.854873 -0.854992 -0.855108 -0.85522 -0.855329 -0.855439 -0.855546 -0.855647 -0.85574 
79 -0.854752 -0.854873 -0.854992 -0.855108 -0.85522 -0.855329 -0.855439 -0.855546 -0.855647 -0.85574 
80 -0.854752 -0.854873 -0.854992 -0.855108 -0.85522 -0.855329 -0.855439 -0.855546 -0.855647 -0.85574 
81 -0.854752 -0.854873 -0.854992 -0.855108 -0.85522 -0.855329 -0.855439 -0.855546 -0.855647 -0.85574 
82 -0.854752 -0.854873 -0.854992 -0.855108 -0.85522 -0.855329 -0.855439 -0.855546 -0.855647 -0.85574 
83 -0.854752 -0.854873 -0.854992 -0.855108 -0.85522 -0.855329 -0.855439 -0.855546 -0.855647 -0.85574 
84 -0.854752 -0.854873 -0.854992 -0.855108 -0.85522 -0.855329 -0.855439 -0.855546 -0.855647 -0.85574 
85 -0.854752 -0.854873 -0.854992 -0.855108 -0.85522 -0.855329 -0.855439 -0.855546 -0.855647 -0.85574 
86 -0.854752 -0.854873 -0.854992 -0.855108 -0.85522 -0.855329 -0.855439 -0.855546 -0.855647 -0.85574 
87 -0.854752 -0.854873 -0.854992 -0.855108 -0.85522 -0.855329 -0.855439 -0.855546 -0.855647 -0.85574 
88 -0.854752 -0.854873 -0.854992 -0.855108 -0.85522 -0.855329 -0.855439 -0.855546 -0.855647 -0.85574 
89 -0.854752 -0.854873 -0.854992 -0.855108 -0.85522 -0.855329 -0.855439 -0.855546 -0.855647 -0.85574 
90 -0.854752 -0.854873 -0.854992 -0.855108 -0.85522 -0.855329 -0.855439 -0.855546 -0.855647 -0.85574 
91 -0.854752 -0.854873 -0.854992 -0.855108 -0.85522 -0.855329 -0.855439 -0.855546 -0.855647 -0.85574 
92 -0.854752 -0.854873 -0.854992 -0.855108 -0.85522 -0.855329 -0.855439 -0.855546 -0.855647 -0.85574 
93 -0.854752 -0.854873 -0.854992 -0.855108 -0.85522 -0.855329 -0.855439 -0.855546 -0.855647 -0.85574 
94 -0.854752 -0.854873 -0.854992 -0.855108 -0.85522 -0.855329 -0.855439 -0.855546 -0.855647 -0.85574 
95 -0.854752 -0.854873 -0.854992 -0.855108 -0.85522 -0.855329 -0.855439 -0.855546 -0.855647 -0.85574 
96 -0.854752 -0.854873 -0.854992 -0.855108 -0.85522 -0.855329 -0.855439 -0.855546 -0.855647 -0.85574 
97 -0.854752 -0.854873 -0.854992 -0.855108 -0.85522 -0.855329 -0.855439 -0.855546 -0.855647 -0.85574 
98 -0.854752 -0.854873 -0.854992 -0.855108 -0.85522 -0.855329 -0.855439 -0.855546 -0.855647 -0.85574 
99 -0.854752 -0.854873 -0.854992 -0.855108 -0.85522 -0.855329 -0.855439 -0.855546 -0.855647 -0.85574 
100 -0.854752 -0.854873 -0.854992 -0.855108 -0.85522 -0.855329 -0.855439 -0.855546 -0.855647 -0.85574 
101 -0.854752 -0.854873 -0.854992 -0.855108 -0.85522 -0.855329 -0.855439 -0.855546 -0.855647 -0.85574 
102 -0.854752 -0.854873 -0.854992 -0.855108 -0.85522 -0.855329 -0.855439 -0.855546 -0.855647 -0.85574 
103 -0.854752 -0.854873 -0.854992 -0.855108 -0.85522 -0.855329 -0.855439 -0.855546 -0.855647 -0.85574 
104 -0.854752 -0.854873 -0.854992 -0.855108 -0.85522 -0.855329 -0.855439 -0.855546 -0.855647 -0.85574 
105 -0.854752 -0.854873 -0.854992 -0.855108 -0.85522 -0.855329 -0.855439 -0.855546 -0.855647 -0.85574 
106 -0.854752 -0.854873 -0.854992 -0.855108 -0.85522 -0.855329 -0.855439 -0.855546 -0.855647 -0.85574 
107 -0.854752 -0.854873 -0.854992 -0.855108 -0.85522 -0.855329 -0.855439 -0.855546 -0.855647 -0.85574 
108 -0.854752 -0.854873 -0.854992 -0.855108 -0.85522 -0.855329 -0.855439 -0.855546 -0.855647 -0.85574 
109 -0.854752 -0.854873 -0.854992 -0.855108 -0.85522 -0.855329 -0.855439 -0.855546 -0.855647 -0.85574 
110 -0.854752 -0.854873 -0.854992 -0.855108 -0.855219 -0.855329 -0.855439 -0.855546 -0.855647 -0.855739 
111 -0.854752 -0.854873 -0.854992 -0.855108 -0.85522 -0.855329 -0.855439 -0.855546 -0.855647 -0.85574 
112 -0.854752 -0.854873 -0.854992 -0.855108 -0.85522 -0.855329 -0.855439 -0.855546 -0.855647 -0.85574 
113 -0.854752 -0.854873 -0.854992 -0.855108 -0.85522 -0.855329 -0.855439 -0.855546 -0.855647 -0.85574 
114 -0.854752 -0.854873 -0.854992 -0.855108 -0.85522 -0.855329 -0.855439 -0.855546 -0.855647 -0.85574 
115 -0.854752 -0.854873 -0.854993 -0.855108 -0.85522 -0.855329 -0.855439 -0.855547 -0.855648 -0.85574 
116 -0.854752 -0.854873 -0.854992 -0.855108 -0.85522 -0.855329 -0.855439 -0.855546 -0.855647 -0.85574 
117 -0.854752 -0.854872 -0.854992 -0.855108 -0.855219 -0.855329 -0.855439 -0.855546 -0.855647 -0.855739 
118 -0.854752 -0.854873 -0.854992 -0.855108 -0.85522 -0.855329 -0.855439 -0.855547 -0.855648 -0.85574 
119 -0.854753 -0.854874 -0.854993 -0.855108 -0.85522 -0.85533 -0.855439 -0.855547 -0.855648 -0.85574 
120 -0.854751 -0.854872 -0.854991 -0.855107 -0.855219 -0.855329 -0.855439 -0.855546 -0.855647 -0.85574 
121 -0.854758 -0.854878 -0.854997 -0.855112 -0.855224 -0.855333 -0.855442 -0.855549 -0.85565 -0.855741 
122 -0.854753 -0.854873 -0.854992 -0.855108 -0.855219 -0.855329 -0.855439 -0.855546 -0.855647 -0.855739 
123 -0.854753 -0.854874 -0.854993 -0.855109 -0.85522 -0.85533 -0.85544 -0.855547 -0.855648 -0.85574 
124 -0.854753 -0.854873 -0.854993 -0.855108 -0.85522 -0.85533 -0.855439 -0.855547 -0.855648 -0.85574 
125 -0.854788 -0.854906 -0.855023 -0.855135 -0.855243 -0.855349 -0.855456 -0.85556 -0.855658 -0.855748 
126 -0.854752 -0.854873 -0.854992 -0.855108 -0.85522 -0.855329 -0.855439 -0.855546 -0.855647 -0.85574 
127 -0.854738 -0.854859 -0.854979 -0.855095 -0.855208 -0.855319 -0.855429 -0.855538 -0.85564 -0.855733 
128 -0.854756 -0.854877 -0.854996 -0.855111 -0.855223 -0.855332 -0.855441 -0.855549 -0.855649 -0.855741 
129 -0.854739 -0.85486 -0.85498 -0.855096 -0.855209 -0.85532 -0.855431 -0.855539 -0.855641 -0.855734 
130 -0.854781 -0.854898 -0.855014 -0.855126 -0.855234 -0.855341 -0.855448 -0.855553 -0.855652 -0.855743 
131 -0.854756 -0.854877 -0.854996 -0.855112 -0.855223 -0.855333 -0.855442 -0.855549 -0.85565 -0.855742 
132 -0.854749 -0.85487 -0.854989 -0.855105 -0.855216 -0.855326 -0.855436 -0.855543 -0.855644 -0.855736 
133 -0.85469 -0.854811 -0.854931 -0.855049 -0.855163 -0.855276 -0.855389 -0.855501 -0.855606 -0.855703 
134 -0.854711 -0.854842 -0.85497 -0.855093 -0.855212 -0.855327 -0.855442 -0.855553 -0.855656 -0.85575 
135 -0.854698 -0.854819 -0.85494 -0.855057 -0.855172 -0.855285 -0.855398 -0.85551 -0.855615 -0.855711 
136 -0.854752 -0.854873 -0.854992 -0.855108 -0.85522 -0.855329 -0.855439 -0.855546 -0.855647 -0.85574 
137 -0.854752 -0.854873 -0.854992 -0.855108 -0.85522 -0.855329 -0.855439 -0.855546 -0.855647 -0.85574 
138 -0.854318 -0.854533 -0.854741 -0.854938 -0.855122 -0.855297 -0.855462 -0.855616 -0.855754 -0.855874 
139 -0.85552 -0.855549 -0.855578 -0.855606 -0.855634 -0.855665 -0.855702 -0.855744 -0.855785 -0.855825 
140 -0.854752 -0.854873 -0.854992 -0.855108 -0.855219 -0.855329 -0.855439 -0.855546 -0.855647 -0.855739 
141 -0.854871 -0.854993 -0.855112 -0.855224 -0.855331 -0.855434 -0.855537 -0.855636 -0.855728 -0.85581 
142 -0.854575 -0.854695 -0.854817 -0.854939 -0.855059 -0.85518 -0.855303 -0.855424 -0.85554 -0.855647 
143 -0.854793 -0.854911 -0.855028 -0.85514 -0.855248 -0.855355 -0.85546 -0.855564 -0.855662 -0.855751 
144 -0.855528 -0.855447 -0.855381 -0.855328 -0.855291 -0.855271 -0.855272 -0.85529 -0.855321 -0.855362 
145 -0.854642 -0.854763 -0.854884 -0.855004 -0.855122 -0.855239 -0.855357 -0.855473 -0.855584 -0.855685 
146 -0.854947 -0.855123 -0.855291 -0.855447 -0.85559 -0.855723 -0.855848 -0.855962 -0.856062 -0.856145 
147 -0.85476 -0.854878 -0.854996 -0.85511 -0.85522 -0.855329 -0.855438 -0.855545 -0.855646 -0.855737 
148 -0.854718 -0.854848 -0.854976 -0.855098 -0.855216 -0.855331 -0.855445 -0.855555 -0.855658 -0.855752 
149 -0.853868 -0.854091 -0.854315 -0.854535 -0.854748 -0.854955 -0.855157 -0.855348 -0.855525 -0.855684 
150 -0.854931 -0.855065 -0.855192 -0.85531 -0.855419 -0.855522 -0.855622 -0.855717 -0.855803 -0.855879 
151 -0.856294 -0.856405 -0.856499 -0.856572 -0.856626 -0.856666 -0.856693 -0.856708 -0.856708 -0.856694 
152 -0.854754 -0.854874 -0.854993 -0.855108 -0.85522 -0.855329 -0.855439 -0.855546 -0.855647 -0.855739 
153 -0.850739 -0.851112 -0.851498 -0.851893 -0.852293 -0.852698 -0.853104 -0.853508 -0.853899 -0.854273 
154 -0.857539 -0.857626 -0.85768 -0.857698 -0.857684 -0.857643 -0.857579 -0.857495 -0.857389 -0.857265 
155 -0.856914 -0.856909 -0.856892 -0.856862 -0.856821 -0.856773 -0.856724 -0.856672 -0.856616 -0.856556 
156 -0.856499 -0.855987 -0.855503 -0.855051 -0.854639 -0.854275 -0.853964 -0.853711 -0.853513 -0.853371 
157 -0.852402 -0.852577 -0.852774 -0.852988 -0.853218 -0.853462 -0.853721 -0.853988 -0.854257 -0.854523 
158 -0.85527 -0.855264 -0.855265 -0.855274 -0.855291 -0.855318 -0.855357 -0.855408 -0.855464 -0.855524 
159 -0.854752 -0.854873 -0.854992 -0.855108 -0.85522 -0.855329 -0.855439 -0.855546 -0.855647 -0.85574 
160 -0.853751 -0.853944 -0.854143 -0.854341 -0.854537 -0.854731 -0.854923 -0.855109 -0.855284 -0.855444 
161 -0.841688 -0.842292 -0.842927 -0.843594 -0.844294 -0.845031 -0.845807 -0.84662 -0.847464 -0.848335 
162 -0.848312 -0.848947 -0.849588 -0.850229 -0.850867 -0.851498 -0.852122 -0.852731 -0.853317 -0.853874 
163 -0.854868 -0.855628 -0.856349 -0.857021 -0.857637 -0.858193 -0.858684 -0.859105 -0.859446 -0.859703 
164 -0.860799 -0.860352 -0.859887 -0.8594 -0.858892 -0.858368 -0.857829 -0.857277 -0.85671 -0.856129 
165 -0.85699 -0.856369 -0.855792 -0.855267 -0.854799 -0.854397 -0.854068 -0.853814 -0.85363 -0.853517 
166 -0.845187 -0.846408 -0.847634 -0.848853 -0.850054 -0.851229 -0.852368 -0.853458 -0.854484 -0.855432 
167 -0.859716 -0.859908 -0.860046 -0.860124 -0.860139 -0.860093 -0.859986 -0.85982 -0.859592 -0.859306 
168 -0.843521 -0.844516 -0.845532 -0.84656 -0.847596 -0.848633 -0.849666 -0.850685 -0.851676 -0.852627 
169 -0.85092 -0.851059 -0.85126 -0.851515 -0.851816 -0.852158 -0.852534 -0.852932 -0.853339 -0.853745 
170 -0.874132 -0.873976 -0.873739 -0.873411 -0.872981 -0.872445 -0.871798 -0.871036 -0.870155 -0.869156 
171 -0.869093 -0.867541 -0.865965 -0.864378 -0.862799 -0.861251 -0.859754 -0.85833 -0.856992 -0.85576 
172 -0.844625 -0.845938 -0.847289 -0.848665 -0.850051 -0.851432 -0.852794 -0.854116 -0.855373 -0.856544 
173 -0.854752 -0.854873 -0.854992 -0.855108 -0.85522 -0.855329 -0.855439 -0.855546 -0.855647 -0.85574 
174 -0.869707 -0.869874 -0.869997 -0.870074 -0.870107 -0.870103 -0.870072 -0.870019 -0.869954 -0.869887 
175 -0.887926 -0.888614 -0.889283 -0.889929 -0.890547 -0.891134 -0.891683 -0.892184 -0.892618 -0.892965 
176 -0.839626 -0.839715 -0.839821 -0.83994 -0.840073 -0.840219 -0.840378 -0.840542 -0.8407 -0.84084 
177 -0.829815 -0.829797 -0.829788 -0.829801 -0.829856 -0.829976 -0.830187 -0.830511 -0.830971 -0.831588 
178 -0.885089 -0.885776 -0.886456 -0.887129 -0.887796 -0.888462 -0.889128 -0.88979 -0.890435 -0.891048 
179 -0.854752 -0.854873 -0.854992 -0.855108 -0.85522 -0.855329 -0.855439 -0.855546 -0.855647 -0.85574 
180 -0.853967 -0.85418 -0.854405 -0.854636 -0.854867 -0.8551 -0.855335 -0.855572 -0.855815 -0.856071 
181 -0.887155 -0.886965 -0.886744 -0.886477 -0.886151 -0.885754 -0.885272 -0.884688 -0.883982 -0.883138 
182 -0.818575 -0.818412 -0.818261 -0.818119 -0.817987 -0.817865 -0.817756 -0.817657 -0.817565 -0.817477 
183 -0.835107 -0.835024 -0.834931 -0.834824 -0.834698 -0.834555 -0.834391 -0.834198 -0.833964 -0.833673 
184 -0.827069 -0.828238 -0.829523 -0.830926 -0.832447 -0.834089 -0.835851 -0.837725 -0.839698 -0.841752 
185 -0.897941 -0.898921 -0.899856 -0.900715 -0.901465 -0.902071 -0.902494 -0.902691 -0.902617 -0.902228 
186 -0.89633 -0.896191 -0.896021 -0.895837 -0.895661 -0.895514 -0.895417 -0.89538 -0.895405 -0.895487 
187 -0.822955 -0.822317 -0.821655 -0.820978 -0.820302 -0.819643 -0.819019 -0.818448 -0.817942 -0.817521 
188 -0.864811 -0.865032 -0.865269 -0.865509 -0.865739 -0.865947 -0.866126 -0.866274 -0.866386 -0.866461 
189 -0.888171 -0.888021 -0.887882 -0.887758 -0.887655 -0.887583 -0.887546 -0.887544 -0.887572 -0.887629 
190 -0.854709 -0.854831 -0.854952 -0.85507 -0.855185 -0.855298 -0.855412 -0.855523 -0.855628 -0.855723 
191 -0.854752 -0.854873 -0.854992 -0.855108 -0.85522 -0.855329 -0.855439 -0.855546 -0.855647 -0.85574 
192 -0.805142 -0.805014 -0.804915 -0.804834 -0.804763 -0.804706 -0.804667 -0.804637 -0.804593 -0.804513 
193 -0.854752 -0.854873 -0.854992 -0.855108 -0.85522 -0.855329 -0.855439 -0.855546 -0.855647 -0.85574 
194 -0.86817 -0.867476 -0.866744 -0.865976 -0.865177 -0.864356 -0.863524 -0.862688 -0.861852 -0.861024 
195 -0.850078 -0.850308 -0.850589 -0.850908 -0.851258 -0.851639 -0.852045 -0.852453 -0.852827 -0.853133 
196 -0.856402 -0.85648 -0.856534 -0.856565 -0.856576 -0.856571 -0.856556 -0.856532 -0.856498 -0.856455 
197 -0.854736 -0.85486 -0.854983 -0.855101 -0.855214 -0.855326 -0.855437 -0.855546 -0.855648 -0.855741 
198 -0.854752 -0.854873 -0.854992 -0.855108 -0.85522 -0.855329 -0.855439 -0.855546 -0.855647 -0.85574 
199 -0.782993 -0.782865 -0.782748 -0.78263 -0.782497 -0.78234 -0.782153 -0.781935 -0.781695 -0.781441 
200 -0.827898 -0.827987 -0.828152 -0.828383 -0.82868 -0.829047 -0.829468 -0.829903 -0.830311 -0.830674 
201 -0.906845 -0.90691 -0.906989 -0.907085 -0.907213 -0.907381 -0.907591 -0.907847 -0.90816 -0.908546 
202 -0.854752 -0.854873 -0.854992 -0.855108 -0.85522 -0.855329 -0.855439 -0.855546 -0.855647 -0.85574 
203 -0.889881 -0.888913 -0.887812 -0.886579 -0.885218 -0.883741 -0.88216 -0.880486 -0.878731 -0.876911 
204 -0.854434 -0.854568 -0.854703 -0.854836 -0.854966 -0.855096 -0.855226 -0.855355 -0.855477 -0.85559 
205 -0.90303 -0.902682 -0.902331 -0.902002 -0.901725 -0.90153 -0.901442 -0.90148 -0.901649 -0.90195 
206 -0.854752 -0.854873 -0.854992 -0.855108 -0.85522 -0.855329 -0.855439 -0.855546 -0.855647 -0.85574 
207 -0.769875 -0.769815 -0.769828 -0.769911 -0.770066 -0.770315 -0.770679 -0.771144 -0.771658 -0.77217 
208 -0.855159 -0.855596 -0.856146 -0.85679 -0.857478 -0.858156 -0.858787 -0.859342 -0.859783 -0.860077 
209 -0.903941 -0.904294 -0.904653 -0.905009 -0.905353 -0.905672 -0.905953 -0.906178 -0.906327 -0.906392 
210 -0.91617 -0.916619 -0.917129 -0.917677 -0.918243 -0.918803 -0.91932 -0.919768 -0.920154 -0.920517 
211 -0.854752 -0.854873 -0.854992 -0.855108 -0.85522 -0.855329 -0.855439 -0.855546 -0.855647 -0.85574 
212 -0.854752 -0.854873 -0.854992 -0.855108 -0.85522 -0.855329 -0.855439 -0.855546 -0.855647 -0.85574 
213 -0.85475 -0.855579 -0.856334 -0.857008 -0.857597 -0.858098 -0.858513 -0.858838 -0.85907 -0.859209 
214 -0.754265 -0.754382 -0.754574 -0.754834 -0.755163 -0.755556 -0.755989 -0.756421 -0.756825 -0.757213 
215 -0.789995 -0.789983 -0.789955 -0.789993 -0.790206 -0.790589 -0.791023 -0.79143 -0.791922 -0.792695 
216 -0.800631 -0.800857 -0.801006 -0.801119 -0.801334 -0.80171 -0.802105 -0.80226 -0.802062 -0.801692 
217 -0.854323 -0.8544 -0.854482 -0.854566 -0.854654 -0.854747 -0.854847 -0.854954 -0.855061 -0.855167 
218 -0.835815 -0.835681 -0.835702 -0.83588 -0.836085 -0.836189 -0.836227 -0.836374 -0.836718 -0.837094 
219 -0.854752 -0.854873 -0.854992 -0.855108 -0.85522 -0.855329 -0.855439 -0.855546 -0.855647 -0.85574 
220 -0.946071 -0.945777 -0.945668 -0.945707 -0.945664 -0.945363 -0.94489 -0.944499 -0.944276 -0.943974 
221 -0.783952 -0.783944 -0.784055 -0.784338 -0.784794 -0.785388 -0.786108 -0.786997 -0.788099 -0.789366 
222 -0.724049 -0.724192 -0.724435 -0.724612 -0.72472 -0.724946 -0.725461 -0.726222 -0.727021 -0.727756 
223 -0.897148 -0.896823 -0.896512 -0.896365 -0.896411 -0.896486 -0.896376 -0.896033 -0.895615 -0.895295 
224 -0.924357 -0.924187 -0.923952 -0.923683 -0.923428 -0.923222 -0.923079 -0.923015 -0.923081 -0.923352 
225 -0.818463 -0.818134 -0.817829 -0.817556 -0.817326 -0.817151 -0.817046 -0.817019 -0.81708 -0.817243 
226 -0.791887 -0.792083 -0.792267 -0.792415 -0.7925 -0.792501 -0.792399 -0.792177 -0.791823 -0.791332 
227 -0.877321 -0.877002 -0.876816 -0.876775 -0.876838 -0.87693 -0.877013 -0.877159 -0.87752 -0.878139 
228 -0.81614 -0.815201 -0.81418 -0.813098 -0.811981 -0.810863 -0.809772 -0.808733 -0.807765 -0.80688 
229 -0.854752 -0.854873 -0.854992 -0.855108 -0.85522 -0.855329 -0.855439 -0.855546 -0.855647 -0.85574 
230 -0.854752 -0.854873 -0.854992 -0.855108 -0.85522 -0.855329 -0.855439 -0.855546 -0.855647 -0.85574 
231 -0.854752 -0.854873 -0.854992 -0.855108 -0.85522 -0.855329 -0.855439 -0.855546 -0.855647 -0.85574 
232 -1.06744 -1.06721 -1.06667 -1.06599 -1.06578 -1.06645 -1.06755 -1.06817 -1.06803 -1.06792 
233 -0.854752 -0.854873 -0.854992 -0.855108 -0.85522 -0.855329 -0.855439 -0.855546 -0.855647 -0.85574 
234 -0.977758 -0.977499 -0.977381 -0.977302 -0.977131 -0.976862 -0.976631 -0.976554 -0.976566 -0.976471 
235 -0.636319 -0.636718 -0.637743 -0.639198 -0.640484 -0.6413 -0.642125 -0.643748 -0.646237 -0.648643 
236 -0.91668 -0.916436 -0.916156 -0.915874 -0.915624 -0.915445 -0.915394 -0.915537 -0.915936 -0.916631 
237 -1.08307 -1.08291 -1.08241 -1.08176 -1.08167 -1.08252 -1.08381 -1.0846 -1.08469 -1.08493 
238 -0.854751 -0.854872 -0.854991 -0.855107 -0.855219 -0.855329 -0.855438 -0.855546 -0.855647 -0.855739 
239 -0.697401 -0.697738 -0.698791 -0.700166 -0.701151 -0.70158 -0.702184 -0.703846 -0.706443 -0.70873 
240 -0.760179 -0.760821 -0.761572 -0.762408 -0.763298 -0.764246 -0.765286 -0.766432 -0.767622 -0.768743 
241 -0.725143 -0.725581 -0.726058 -0.726596 -0.727265 -0.728097 -0.729031 -0.729977 -0.730953 -0.732105 
242 -0.854752 -0.854873 -0.854992 -0.855108 -0.85522 -0.855329 -0.855439 -0.855546 -0.855647 -0.85574 
243 -0.986465 -0.986292 -0.986099 -0.985816 -0.985488 -0.985243 -0.985142 -0.985082 -0.9849 -0.984583 
244 -1.09932 -1.09896 -1.09845 -1.09831 -1.09879 -1.0995 -1.09978 -1.09955 -1.09953 -1.10043 
245 -0.516503 -0.517279 -0.518246 -0.51886 -0.518995 -0.519271 -0.520378 -0.522045 -0.523052 -0.522625 
246 -1.03864 -1.03826 -1.03794 -1.03792 -1.03819 -1.0384 -1.0383 -1.03807 -1.03816 -1.03876 
247 -0.855083 -0.855141 -0.855201 -0.855262 -0.855324 -0.85539 -0.855461 -0.855537 -0.855613 -0.855685 
248 -0.854752 -0.854873 -0.854992 -0.855108 -0.85522 -0.855329 -0.855439 -0.855546 -0.855647 -0.85574 
249 -0.603753 -0.604393 -0.604951 -0.605262 -0.605521 -0.606111 -0.607113 -0.608072 -0.608471 -0.608439 
250 -0.805702 -0.805519 -0.805254 -0.804889 -0.804408 -0.803801 -0.803067 -0.802205 -0.801219 -0.800123 
251 -0.7679 -0.768757 -0.769663 -0.770592 -0.771529 -0.772466 -0.773378 -0.77421 -0.774892 -0.775379 
252 -0.739713 -0.740245 -0.740879 -0.741648 -0.742497 -0.743343 -0.744196 -0.745191 -0.746448 -0.747892 
253 -0.854752 -0.854873 -0.854992 -0.855108 -0.85522 -0.855329 -0.855439 -0.855546 -0.855647 -0.85574 
254 -0.896168 -0.897025 -0.897919 -0.898841 -0.899781 -0.900736 -0.9017 -0.902668 -0.903639 -0.904616 
255 -0.854752 -0.854873 -0.854992 -0.855108 -0.85522 -0.855329 -0.855439 -0.855546 -0.855647 -0.85574 
256 -0.860126 -0.859557 -0.859012 -0.858494 -0.858007 -0.857556 -0.857146 -0.856778 -0.85645 -0.85616 
257 -1.04417 -1.04412 -1.04427 -1.04461 -1.04478 -1.04447 -1.04388 -1.04357 -1.04392 -1.04456 
258 -0.814628 -0.813053 -0.811357 -0.809567 -0.807718 -0.805849 -0.803997 -0.802193 -0.800463 -0.798829 
259 -0.89298 -0.893532 -0.894081 -0.894625 -0.895163 -0.895701 -0.896242 -0.896788 -0.897334 -0.897879 
260 -0.626819 -0.627188 -0.62716 -0.626972 -0.627115 -0.627751 -0.628412 -0.628476 -0.627944 -0.627595 
261 -0.993457 -0.99336 -0.993311 -0.993249 -0.993174 -0.99318 -0.993358 -0.993663 -0.993902 -0.993904 
262 -1.02405 -1.02401 -1.02407 -1.02412 -1.02404 -1.02382 -1.02369 -1.02381 -1.02414 -1.02435 
263 -0.854752 -0.854873 -0.854992 -0.855108 -0.85522 -0.855329 -0.855439 -0.855546 -0.855647 -0.85574 
264 -0.813324 -0.813412 -0.813665 -0.814093 -0.814704 -0.815512 -0.816526 -0.817753 -0.819197 -0.82086 
265 -0.714164 -0.714634 -0.715092 -0.715737 -0.716579 -0.717369 -0.717872 -0.718191 -0.718734 -0.719791 
266 -0.672838 -0.673163 -0.673313 -0.673561 -0.674126 -0.674866 -0.675369 -0.675424 -0.675334 -0.675657 
267 -0.918405 -0.918777 -0.919179 -0.9196 -0.920025 -0.920458 -0.920926 -0.921459 -0.922062 -0.922716 
268 -0.833432 -0.83454 -0.835749 -0.837052 -0.838438 -0.839902 -0.841431 -0.84301 -0.844617 -0.84623 
269 -0.854752 -0.854873 -0.854992 -0.855108 -0.85522 -0.855329 -0.855439 -0.855546 -0.855647 -0.85574 
270 -1.00484 -1.00517 -1.0054 -1.00545 -1.00543 -1.00557 -1.00594 -1.00637 -1.00658 -1.00652 
271 -0.968777 -0.96883 -0.968847 -0.968895 -0.969086 -0.969458 -0.969898 -0.97023 -0.970383 -0.970452 
272 -0.693965 -0.694068 -0.694488 -0.695276 -0.696069 -0.696443 -0.696391 -0.69634 -0.696675 -0.697304 
273 -0.777211 -0.778209 -0.779156 -0.780036 -0.780859 -0.781618 -0.782258 -0.782684 -0.782817 -0.782642 
274 -0.740028 -0.740651 -0.74137 -0.742062 -0.742492 -0.742572 -0.742505 -0.742615 -0.74301 -0.743442 
275 -0.854752 -0.854873 -0.854992 -0.855108 -0.855219 -0.855329 -0.855439 -0.855546 -0.855647 -0.855739 
276 -0.979442 -0.979748 -0.979959 -0.98009 -0.980271 -0.980604 -0.981028 -0.981343 -0.981402 -0.981245 
277 -0.854752 -0.854873 -0.854992 -0.855108 -0.85522 -0.855329 -0.855439 -0.855546 -0.855647 -0.85574 
278 -0.71997 -0.720302 -0.720795 -0.721367 -0.721727 -0.721668 -0.721308 -0.720987 -0.720918 -0.720995 
279 -0.772523 -0.773448 -0.774243 -0.774793 -0.775104 -0.775316 -0.775563 -0.775822 -0.775905 -0.775629 
280 -0.943893 -0.944145 -0.944421 -0.944745 -0.945083 -0.945356 -0.945505 -0.945534 -0.945492 -0.945413 
281 -0.810059 -0.809999 -0.809929 -0.809832 -0.809694 -0.80951 -0.809283 -0.809014 -0.808699 -0.808331 
282 -0.94155 -0.941388 -0.941226 -0.94113 -0.9411 -0.941105 -0.941161 -0.941362 -0.941808 -0.94251 
283 -0.906666 -0.907478 -0.908301 -0.909126 -0.909952 -0.910781 -0.911609 -0.912422 -0.913197 -0.913915 
284 -0.796353 -0.797046 -0.797769 -0.798488 -0.799148 -0.799687 -0.800048 -0.800198 -0.800118 -0.7998 
285 -0.748669 -0.748897 -0.749078 -0.749088 -0.748995 -0.748987 -0.749151 -0.749355 -0.749413 -0.749343 
286 -0.854752 -0.854873 -0.854992 -0.855108 -0.85522 -0.855329 -0.855439 -0.855546 -0.855647 -0.85574 
287 -0.788037 -0.788317 -0.788295 -0.787999 -0.787535 -0.786987 -0.786333 -0.785492 -0.784442 -0.783271 
288 -0.93059 -0.930562 -0.930519 -0.9305 -0.930522 -0.930579 -0.930675 -0.930846 -0.93115 -0.931606 
289 -0.822148 -0.821082 -0.819962 -0.818805 -0.817625 -0.816436 -0.815241 -0.814034 -0.812796 -0.811505 