VARIABLES = "Cell" "Mode 0" "Mode 1" "Mode 2" "Mode 3" "Mode 4" "Mode 5" "Mode 6" "Mode 7" "Mode 8" "Mode 9" 
ZONE T = Iteration277
0 -0.850364 -0.850346 -0.850328 -0.850311 -0.850294 -0.850277 -0.850261 -0.850245 -0.85023 -0.850215 
1 -0.850364 -0.850346 -0.850328 -0.850311 -0.850294 -0.850277 -0.850261 -0.850245 -0.85023 -0.850215 
2 -0.850364 -0.850346 -0.850328 -0.850311 -0.850294 -0.850277 -0.850261 -0.850245 -0.85023 -0.850215 
3 -0.850364 -0.850346 -0.850328 -0.850311 -0.850294 -0.850277 -0.850261 -0.850245 -0.85023 -0.850215 
4 -0.850364 -0.850346 -0.850328 -0.850311 -0.850294 -0.850277 -0.850261 -0.850245 -0.85023 -0.850215 
5 -0.850364 -0.850346 -0.850328 -0.850311 -0.850294 -0.850277 -0.850261 -0.850245 -0.85023 -0.850215 
6 -0.850364 -0.850346 -0.850328 -0.850311 -0.850294 -0.850277 -0.850261 -0.850245 -0.85023 -0.850215 
7 -0.850364 -0.850346 -0.850328 -0.850311 -0.850294 -0.850277 -0.850261 -0.850245 -0.85023 -0.850215 
8 -0.850364 -0.850346 -0.850328 -0.850311 -0.850294 -0.850277 -0.850261 -0.850245 -0.85023 -0.850215 
9 -0.850364 -0.850346 -0.850328 -0.850311 -0.850294 -0.850277 -0.850261 -0.850245 -0.85023 -0.850215 
10 -0.850364 -0.850346 -0.850328 -0.850311 -0.850294 -0.850277 -0.850261 -0.850245 -0.85023 -0.850215 
11 -0.850364 -0.850346 -0.850328 -0.850311 -0.850294 -0.850277 -0.850261 -0.850245 -0.85023 -0.850215 
12 -0.850364 -0.850346 -0.850328 -0.850311 -0.850294 -0.850277 -0.850261 -0.850245 -0.85023 -0.850215 
13 -0.850364 -0.850346 -0.850328 -0.850311 -0.850294 -0.850277 -0.850261 -0.850245 -0.85023 -0.850215 
14 -0.850364 -0.850346 -0.850328 -0.850311 -0.850294 -0.850277 -0.850261 -0.850245 -0.85023 -0.850215 
15 -0.850364 -0.850346 -0.850328 -0.850311 -0.850294 -0.850277 -0.850261 -0.850245 -0.85023 -0.850215 
16 -0.850364 -0.850346 -0.850328 -0.850311 -0.850294 -0.850277 -0.850261 -0.850245 -0.85023 -0.850215 
17 -0.850364 -0.850346 -0.850328 -0.850311 -0.850294 -0.850277 -0.850261 -0.850245 -0.85023 -0.850215 
18 -0.850364 -0.850346 -0.850328 -0.850311 -0.850294 -0.850277 -0.850261 -0.850245 -0.85023 -0.850215 
19 -0.850364 -0.850346 -0.850328 -0.850311 -0.850294 -0.850277 -0.850261 -0.850245 -0.85023 -0.850215 
20 -0.850364 -0.850346 -0.850328 -0.850311 -0.850294 -0.850277 -0.850261 -0.850245 -0.85023 -0.850215 
21 -0.850364 -0.850346 -0.850328 -0.850311 -0.850294 -0.850277 -0.850261 -0.850245 -0.85023 -0.850215 
22 -0.850364 -0.850346 -0.850328 -0.850311 -0.850294 -0.850277 -0.850261 -0.850245 -0.85023 -0.850215 
23 -0.850364 -0.850346 -0.850328 -0.850311 -0.850294 -0.850277 -0.850261 -0.850245 -0.85023 -0.850215 
24 -0.850364 -0.850346 -0.850328 -0.850311 -0.850294 -0.850277 -0.850261 -0.850245 -0.85023 -0.850215 
25 -0.850364 -0.850346 -0.850328 -0.850311 -0.850294 -0.850277 -0.850261 -0.850245 -0.85023 -0.850215 
26 -0.850364 -0.850346 -0.850328 -0.850311 -0.850294 -0.850277 -0.850261 -0.850245 -0.85023 -0.850215 
27 -0.850364 -0.850346 -0.850328 -0.850311 -0.850294 -0.850277 -0.850261 -0.850245 -0.85023 -0.850215 
28 -0.850364 -0.850346 -0.850328 -0.850311 -0.850294 -0.850277 -0.850261 -0.850245 -0.85023 -0.850215 
29 -0.850364 -0.850346 -0.850328 -0.850311 -0.850294 -0.850277 -0.850261 -0.850245 -0.85023 -0.850215 
30 -0.850364 -0.850346 -0.850328 -0.850311 -0.850294 -0.850277 -0.850261 -0.850245 -0.85023 -0.850215 
31 -0.850364 -0.850346 -0.850328 -0.850311 -0.850294 -0.850277 -0.850261 -0.850245 -0.85023 -0.850215 
32 -0.850364 -0.850346 -0.850328 -0.850311 -0.850294 -0.850277 -0.850261 -0.850245 -0.85023 -0.850215 
33 -0.850364 -0.850346 -0.850328 -0.850311 -0.850294 -0.850277 -0.850261 -0.850245 -0.85023 -0.850215 
34 -0.850364 -0.850346 -0.850328 -0.850311 -0.850294 -0.850277 -0.850261 -0.850245 -0.85023 -0.850215 
35 -0.850364 -0.850346 -0.850328 -0.850311 -0.850294 -0.850277 -0.850261 -0.850245 -0.85023 -0.850215 
36 -0.850364 -0.850346 -0.850328 -0.850311 -0.850294 -0.850277 -0.850261 -0.850245 -0.85023 -0.850215 
37 -0.850364 -0.850346 -0.850328 -0.850311 -0.850294 -0.850277 -0.850261 -0.850245 -0.85023 -0.850215 
38 -0.850364 -0.850346 -0.850328 -0.850311 -0.850294 -0.850277 -0.850261 -0.850245 -0.85023 -0.850215 
39 -0.850364 -0.850346 -0.850328 -0.850311 -0.850294 -0.850277 -0.850261 -0.850245 -0.85023 -0.850215 
40 -0.850364 -0.850346 -0.850328 -0.850311 -0.850294 -0.850277 -0.850261 -0.850245 -0.85023 -0.850215 
41 -0.850364 -0.850346 -0.850328 -0.850311 -0.850294 -0.850277 -0.850261 -0.850245 -0.85023 -0.850215 
42 -0.850364 -0.850346 -0.850328 -0.850311 -0.850294 -0.850277 -0.850261 -0.850245 -0.85023 -0.850215 
43 -0.850364 -0.850346 -0.850328 -0.850311 -0.850294 -0.850277 -0.850261 -0.850245 -0.85023 -0.850215 
44 -0.850364 -0.850346 -0.850328 -0.850311 -0.850294 -0.850277 -0.850261 -0.850245 -0.85023 -0.850215 
45 -0.850364 -0.850346 -0.850328 -0.850311 -0.850294 -0.850277 -0.850261 -0.850245 -0.85023 -0.850215 
46 -0.850364 -0.850346 -0.850328 -0.850311 -0.850294 -0.850277 -0.850261 -0.850245 -0.85023 -0.850215 
47 -0.850364 -0.850346 -0.850328 -0.850311 -0.850294 -0.850277 -0.850261 -0.850245 -0.85023 -0.850215 
48 -0.850364 -0.850346 -0.850328 -0.850311 -0.850294 -0.850277 -0.850261 -0.850245 -0.85023 -0.850215 
49 -0.850364 -0.850346 -0.850328 -0.850311 -0.850294 -0.850277 -0.850261 -0.850245 -0.85023 -0.850215 
50 -0.850364 -0.850346 -0.850328 -0.850311 -0.850294 -0.850277 -0.850261 -0.850245 -0.85023 -0.850215 
51 -0.850364 -0.850346 -0.850328 -0.850311 -0.850294 -0.850277 -0.850261 -0.850245 -0.85023 -0.850215 
52 -0.850364 -0.850346 -0.850328 -0.850311 -0.850294 -0.850277 -0.850261 -0.850245 -0.85023 -0.850215 
53 -0.850364 -0.850346 -0.850328 -0.850311 -0.850294 -0.850277 -0.850261 -0.850245 -0.85023 -0.850215 
54 -0.850364 -0.850346 -0.850328 -0.850311 -0.850294 -0.850277 -0.850261 -0.850245 -0.85023 -0.850215 
55 -0.850364 -0.850346 -0.850328 -0.850311 -0.850294 -0.850277 -0.850261 -0.850245 -0.85023 -0.850215 
56 -0.850364 -0.850346 -0.850328 -0.850311 -0.850294 -0.850277 -0.850261 -0.850245 -0.85023 -0.850215 
57 -0.850364 -0.850346 -0.850328 -0.850311 -0.850294 -0.850277 -0.850261 -0.850245 -0.85023 -0.850215 
58 -0.850364 -0.850346 -0.850328 -0.850311 -0.850294 -0.850277 -0.850261 -0.850245 -0.85023 -0.850215 
59 -0.850364 -0.850346 -0.850328 -0.850311 -0.850294 -0.850277 -0.850261 -0.850245 -0.85023 -0.850215 
60 -0.850364 -0.850346 -0.850328 -0.850311 -0.850294 -0.850277 -0.850261 -0.850245 -0.85023 -0.850215 
61 -0.850364 -0.850346 -0.850328 -0.850311 -0.850294 -0.850277 -0.850261 -0.850245 -0.85023 -0.850215 
62 -0.850364 -0.850346 -0.850328 -0.850311 -0.850294 -0.850277 -0.850261 -0.850245 -0.85023 -0.850215 
63 -0.850364 -0.850346 -0.850328 -0.850311 -0.850294 -0.850277 -0.850261 -0.850245 -0.85023 -0.850215 
64 -0.850364 -0.850346 -0.850328 -0.850311 -0.850294 -0.850277 -0.850261 -0.850245 -0.85023 -0.850215 
65 -0.850364 -0.850346 -0.850328 -0.850311 -0.850294 -0.850277 -0.850261 -0.850245 -0.85023 -0.850215 
66 -0.850364 -0.850346 -0.850328 -0.850311 -0.850294 -0.850277 -0.850261 -0.850245 -0.85023 -0.850215 
67 -0.850364 -0.850346 -0.850328 -0.850311 -0.850294 -0.850277 -0.850261 -0.850245 -0.85023 -0.850215 
68 -0.850364 -0.850346 -0.850328 -0.850311 -0.850294 -0.850277 -0.850261 -0.850245 -0.85023 -0.850215 
69 -0.850364 -0.850346 -0.850328 -0.850311 -0.850294 -0.850277 -0.850261 -0.850245 -0.85023 -0.850215 
70 -0.850364 -0.850346 -0.850328 -0.850311 -0.850294 -0.850277 -0.850261 -0.850245 -0.85023 -0.850215 
71 -0.850364 -0.850346 -0.850328 -0.850311 -0.850294 -0.850277 -0.850261 -0.850245 -0.85023 -0.850215 
72 -0.850364 -0.850346 -0.850328 -0.850311 -0.850294 -0.850277 -0.850261 -0.850245 -0.85023 -0.850215 
73 -0.850364 -0.850346 -0.850328 -0.850311 -0.850294 -0.850277 -0.850261 -0.850245 -0.85023 -0.850215 
74 -0.850364 -0.850346 -0.850328 -0.850311 -0.850294 -0.850277 -0.850261 -0.850245 -0.85023 -0.850215 
75 -0.850364 -0.850346 -0.850328 -0.850311 -0.850294 -0.850277 -0.850261 -0.850245 -0.85023 -0.850215 
76 -0.850364 -0.850346 -0.850328 -0.850311 -0.850294 -0.850277 -0.850261 -0.850245 -0.85023 -0.850215 
77 -0.850364 -0.850346 -0.850328 -0.850311 -0.850294 -0.850277 -0.850261 -0.850245 -0.85023 -0.850215 
78 -0.850364 -0.850346 -0.850328 -0.850311 -0.850294 -0.850277 -0.850261 -0.850245 -0.85023 -0.850215 
79 -0.850363 -0.850345 -0.850328 -0.850311 -0.850294 -0.850277 -0.850261 -0.850245 -0.85023 -0.850215 
80 -0.850364 -0.850346 -0.850329 -0.850311 -0.850294 -0.850278 -0.850261 -0.850246 -0.85023 -0.850216 
81 -0.850363 -0.850346 -0.850328 -0.850311 -0.850294 -0.850277 -0.850261 -0.850245 -0.85023 -0.850215 
82 -0.850363 -0.850345 -0.850328 -0.85031 -0.850293 -0.850277 -0.850261 -0.850245 -0.85023 -0.850215 
83 -0.850364 -0.850346 -0.850328 -0.850311 -0.850294 -0.850277 -0.850261 -0.850245 -0.85023 -0.850216 
84 -0.850363 -0.850346 -0.850328 -0.850311 -0.850294 -0.850277 -0.850261 -0.850245 -0.85023 -0.850215 
85 -0.850362 -0.850345 -0.850327 -0.85031 -0.850293 -0.850277 -0.85026 -0.850245 -0.850229 -0.850215 
86 -0.850364 -0.850346 -0.850329 -0.850311 -0.850294 -0.850278 -0.850261 -0.850246 -0.85023 -0.850216 
87 -0.850364 -0.850346 -0.850328 -0.850311 -0.850294 -0.850277 -0.850261 -0.850245 -0.85023 -0.850215 
88 -0.850364 -0.850346 -0.850329 -0.850311 -0.850294 -0.850278 -0.850261 -0.850245 -0.85023 -0.850216 
89 -0.850356 -0.850338 -0.85032 -0.850302 -0.850285 -0.850268 -0.850251 -0.850235 -0.850219 -0.850204 
90 -0.850364 -0.850346 -0.850328 -0.850311 -0.850294 -0.850277 -0.850261 -0.850245 -0.85023 -0.850215 
91 -0.850357 -0.85034 -0.850323 -0.850307 -0.85029 -0.850274 -0.850258 -0.850243 -0.850228 -0.850214 
92 -0.850358 -0.85034 -0.850322 -0.850304 -0.850287 -0.85027 -0.850254 -0.850238 -0.850223 -0.850208 
93 -0.850342 -0.850324 -0.850306 -0.850289 -0.850271 -0.850255 -0.850238 -0.850222 -0.850207 -0.850192 
94 -0.850364 -0.850346 -0.850328 -0.850311 -0.850294 -0.850277 -0.850261 -0.850245 -0.85023 -0.850215 
95 -0.850296 -0.850279 -0.850263 -0.850247 -0.850231 -0.850215 -0.8502 -0.850186 -0.850172 -0.850159 
96 -0.850348 -0.850331 -0.850315 -0.850298 -0.850282 -0.850267 -0.850251 -0.850236 -0.850222 -0.850208 
97 -0.850341 -0.850323 -0.850305 -0.850288 -0.85027 -0.850253 -0.850237 -0.850221 -0.850205 -0.85019 
98 -0.850364 -0.850346 -0.850329 -0.850311 -0.850294 -0.850278 -0.850261 -0.850246 -0.85023 -0.850216 
99 -0.850621 -0.850602 -0.850583 -0.850564 -0.850545 -0.850526 -0.850507 -0.850489 -0.850471 -0.850454 
100 -0.850279 -0.850255 -0.850232 -0.850209 -0.850187 -0.850166 -0.850145 -0.850125 -0.850106 -0.850087 
101 -0.850372 -0.850354 -0.850336 -0.850319 -0.850302 -0.850285 -0.850268 -0.850252 -0.850237 -0.850222 
102 -0.850629 -0.850606 -0.850583 -0.850561 -0.850538 -0.850516 -0.850495 -0.850473 -0.850453 -0.850432 
103 -0.850352 -0.850334 -0.850317 -0.850299 -0.850282 -0.850266 -0.85025 -0.850234 -0.850219 -0.850204 
104 -0.850531 -0.850504 -0.850478 -0.850452 -0.850426 -0.8504 -0.850375 -0.850351 -0.850327 -0.850304 
105 -0.850233 -0.850221 -0.850209 -0.850197 -0.850185 -0.850174 -0.850163 -0.850152 -0.850143 -0.850133 
106 -0.850351 -0.850334 -0.850317 -0.850299 -0.850283 -0.850266 -0.85025 -0.850234 -0.850219 -0.850205 
107 -0.850364 -0.850346 -0.850328 -0.850311 -0.850294 -0.850277 -0.850261 -0.850245 -0.85023 -0.850215 
108 -0.850485 -0.850464 -0.850444 -0.850424 -0.850405 -0.850385 -0.850366 -0.850348 -0.85033 -0.850313 
109 -0.850436 -0.850424 -0.850412 -0.8504 -0.850387 -0.850375 -0.850363 -0.850351 -0.85034 -0.850328 
110 -0.850249 -0.850264 -0.850279 -0.850294 -0.850308 -0.850323 -0.850337 -0.850352 -0.850366 -0.850381 
111 -0.851541 -0.851513 -0.851484 -0.851455 -0.851426 -0.851396 -0.851366 -0.851336 -0.851306 -0.851276 
112 -0.850354 -0.850335 -0.850317 -0.850299 -0.850281 -0.850264 -0.850247 -0.85023 -0.850215 -0.850199 
113 -0.850364 -0.850346 -0.850328 -0.850311 -0.850294 -0.850277 -0.850261 -0.850245 -0.85023 -0.850215 
114 -0.850462 -0.85045 -0.850438 -0.850426 -0.850414 -0.850402 -0.850391 -0.85038 -0.85037 -0.850359 
115 -0.848755 -0.848724 -0.848694 -0.848665 -0.848638 -0.848612 -0.848587 -0.848564 -0.848543 -0.848523 
116 -0.850743 -0.850722 -0.8507 -0.850679 -0.850658 -0.850637 -0.850616 -0.850595 -0.850575 -0.850555 
117 -0.851334 -0.851346 -0.851357 -0.851367 -0.851377 -0.851385 -0.851393 -0.8514 -0.851406 -0.851412 
118 -0.848816 -0.848826 -0.848836 -0.848847 -0.84886 -0.848873 -0.848887 -0.848902 -0.848919 -0.848936 
119 -0.849248 -0.849268 -0.849288 -0.849309 -0.849329 -0.849349 -0.84937 -0.849391 -0.849412 -0.849434 
120 -0.85108 -0.851098 -0.851117 -0.851136 -0.851155 -0.851174 -0.851194 -0.851215 -0.851235 -0.851257 
121 -0.851154 -0.851078 -0.851001 -0.850923 -0.850845 -0.850767 -0.850689 -0.850611 -0.850533 -0.850455 
122 -0.847685 -0.847706 -0.84773 -0.847755 -0.847781 -0.847809 -0.847839 -0.84787 -0.847903 -0.847937 
123 -0.849318 -0.849346 -0.849375 -0.849404 -0.849432 -0.849461 -0.849489 -0.849518 -0.849546 -0.849574 
124 -0.852941 -0.852907 -0.852874 -0.852839 -0.852805 -0.852769 -0.852734 -0.852698 -0.852662 -0.852626 
125 -0.851245 -0.851185 -0.851125 -0.851065 -0.851004 -0.850944 -0.850884 -0.850825 -0.850766 -0.850707 
126 -0.850364 -0.850346 -0.850328 -0.850311 -0.850294 -0.850277 -0.850261 -0.850245 -0.85023 -0.850215 
127 -0.84733 -0.847298 -0.847267 -0.847239 -0.847212 -0.847186 -0.847163 -0.847142 -0.847123 -0.847105 
128 -0.854176 -0.85413 -0.854083 -0.854036 -0.853989 -0.853941 -0.853893 -0.853844 -0.853796 -0.853747 
129 -0.855859 -0.85591 -0.85596 -0.856008 -0.856055 -0.856101 -0.856145 -0.856188 -0.85623 -0.85627 
130 -0.854253 -0.854265 -0.854277 -0.854288 -0.854298 -0.854307 -0.854315 -0.854323 -0.85433 -0.854336 
131 -0.847322 -0.847282 -0.847241 -0.8472 -0.84716 -0.84712 -0.84708 -0.84704 -0.847001 -0.846963 
132 -0.844804 -0.844744 -0.844686 -0.844629 -0.844573 -0.84452 -0.844468 -0.844418 -0.84437 -0.844324 
133 -0.850996 -0.850991 -0.850987 -0.850982 -0.850978 -0.850974 -0.85097 -0.850967 -0.850964 -0.850961 
134 -0.848491 -0.848418 -0.848345 -0.848273 -0.848202 -0.848133 -0.848065 -0.847998 -0.847933 -0.84787 
135 -0.844612 -0.844571 -0.844533 -0.844497 -0.844464 -0.844433 -0.844405 -0.84438 -0.844357 -0.844337 
136 -0.85036 -0.850342 -0.850325 -0.850308 -0.850291 -0.850274 -0.850258 -0.850242 -0.850227 -0.850212 
137 -0.85046 -0.850448 -0.850436 -0.850424 -0.850412 -0.850401 -0.85039 -0.850379 -0.850368 -0.850357 
138 -0.853738 -0.853704 -0.853668 -0.853629 -0.853589 -0.853546 -0.8535 -0.853453 -0.853405 -0.853354 
139 -0.845783 -0.845742 -0.845703 -0.845665 -0.84563 -0.845596 -0.845564 -0.845535 -0.845507 -0.845482 
140 -0.848776 -0.848773 -0.848772 -0.848771 -0.848772 -0.848773 -0.848776 -0.84878 -0.848785 -0.848792 
141 -0.855454 -0.855538 -0.855621 -0.855704 -0.855786 -0.855866 -0.855946 -0.856025 -0.856104 -0.856181 
142 -0.844631 -0.844529 -0.844428 -0.844328 -0.844228 -0.844129 -0.844032 -0.843935 -0.843839 -0.843745 
143 -0.855156 -0.855136 -0.855116 -0.855096 -0.855077 -0.855058 -0.85504 -0.855022 -0.855005 -0.854988 
144 -0.851986 -0.851939 -0.851892 -0.851844 -0.851796 -0.851747 -0.851697 -0.851646 -0.851595 -0.851544 
145 -0.845228 -0.845202 -0.845177 -0.845152 -0.845128 -0.845104 -0.845082 -0.84506 -0.845038 -0.845017 
146 -0.853752 -0.853687 -0.853621 -0.853554 -0.853485 -0.853415 -0.853344 -0.853272 -0.853198 -0.853125 
147 -0.856257 -0.856284 -0.856312 -0.85634 -0.856369 -0.856399 -0.856429 -0.856461 -0.856493 -0.856527 
148 -0.84498 -0.844896 -0.844811 -0.844726 -0.844642 -0.844557 -0.844472 -0.844387 -0.844303 -0.844219 
149 -0.856501 -0.856519 -0.856536 -0.856551 -0.856565 -0.856579 -0.856591 -0.856602 -0.856613 -0.856622 
150 -0.852665 -0.852635 -0.852607 -0.852583 -0.852561 -0.852543 -0.852529 -0.852518 -0.852511 -0.852508 
151 -0.845925 -0.845839 -0.845753 -0.845669 -0.845585 -0.845504 -0.845424 -0.845345 -0.845269 -0.845194 
152 -0.846163 -0.846149 -0.846136 -0.846125 -0.846115 -0.846106 -0.8461 -0.846095 -0.846092 -0.846091 
153 -0.851306 -0.851181 -0.851056 -0.850928 -0.8508 -0.85067 -0.850539 -0.850406 -0.850273 -0.85014 
154 -0.848138 -0.848046 -0.847953 -0.847861 -0.847769 -0.847677 -0.847586 -0.847495 -0.847406 -0.847317 
155 -0.844527 -0.844516 -0.844507 -0.8445 -0.844495 -0.844491 -0.844488 -0.844488 -0.844489 -0.844491 
156 -0.858694 -0.858675 -0.858655 -0.858632 -0.858609 -0.858584 -0.858558 -0.858532 -0.858505 -0.858477 
157 -0.858361 -0.858318 -0.858273 -0.858226 -0.858178 -0.858129 -0.858078 -0.858026 -0.857973 -0.857919 
158 -0.844958 -0.844982 -0.845007 -0.845032 -0.845058 -0.845084 -0.84511 -0.845136 -0.845162 -0.845189 
159 -0.849874 -0.849879 -0.849885 -0.849891 -0.849896 -0.849902 -0.849909 -0.849915 -0.849922 -0.84993 
160 -0.851913 -0.85186 -0.85181 -0.851763 -0.851719 -0.851678 -0.85164 -0.851605 -0.851573 -0.851545 
161 -0.836772 -0.83672 -0.836668 -0.836617 -0.836565 -0.836515 -0.836465 -0.836415 -0.836367 -0.83632 
162 -0.847493 -0.847435 -0.847374 -0.847311 -0.847246 -0.847179 -0.847109 -0.847037 -0.846962 -0.846885 
163 -0.841255 -0.841286 -0.841319 -0.841355 -0.841394 -0.841434 -0.841477 -0.841521 -0.841567 -0.841615 
164 -0.860741 -0.860723 -0.860701 -0.860675 -0.860644 -0.860609 -0.86057 -0.860528 -0.860483 -0.860434 
165 -0.85816 -0.858096 -0.858033 -0.857973 -0.857915 -0.857859 -0.857805 -0.857755 -0.857707 -0.857661 
166 -0.835608 -0.835604 -0.835601 -0.835599 -0.835597 -0.835597 -0.835598 -0.8356 -0.835603 -0.835607 
167 -0.855706 -0.855686 -0.855661 -0.855631 -0.855597 -0.855557 -0.855514 -0.855466 -0.855413 -0.855357 
168 -0.839572 -0.839531 -0.83949 -0.839446 -0.839401 -0.839354 -0.839306 -0.839257 -0.839206 -0.839154 
169 -0.855669 -0.855607 -0.855548 -0.855491 -0.855436 -0.855384 -0.855334 -0.855287 -0.855242 -0.8552 
170 -0.865455 -0.865431 -0.865403 -0.865371 -0.865334 -0.865293 -0.865249 -0.865202 -0.865152 -0.865099 
171 -0.8641 -0.864063 -0.864027 -0.863991 -0.863955 -0.863921 -0.863888 -0.863858 -0.863829 -0.863804 
172 -0.841899 -0.841859 -0.841819 -0.84178 -0.841742 -0.841705 -0.841669 -0.841634 -0.841601 -0.84157 
173 -0.850364 -0.850346 -0.850328 -0.850311 -0.850294 -0.850277 -0.850261 -0.850245 -0.85023 -0.850215 
174 -0.863512 -0.863534 -0.863554 -0.863573 -0.863591 -0.863606 -0.863618 -0.863628 -0.863634 -0.863638 
175 -0.872928 -0.872955 -0.872978 -0.872997 -0.873012 -0.873022 -0.873028 -0.873028 -0.873023 -0.873013 
176 -0.845322 -0.845335 -0.845347 -0.845356 -0.845364 -0.845369 -0.845371 -0.845372 -0.845371 -0.845367 
177 -0.835148 -0.835108 -0.835064 -0.835018 -0.834969 -0.834918 -0.834866 -0.834812 -0.834757 -0.834702 
178 -0.871486 -0.871534 -0.871579 -0.87162 -0.871657 -0.87169 -0.871716 -0.871737 -0.871752 -0.87176 
179 -0.850364 -0.850346 -0.850328 -0.850311 -0.850294 -0.850277 -0.850261 -0.850245 -0.85023 -0.850215 
180 -0.850224 -0.850283 -0.850344 -0.850406 -0.850469 -0.850532 -0.850594 -0.850655 -0.850714 -0.850771 
181 -0.871815 -0.871804 -0.871792 -0.87178 -0.871768 -0.871756 -0.871744 -0.871732 -0.871722 -0.871712 
182 -0.829162 -0.829176 -0.829186 -0.829192 -0.829194 -0.829191 -0.829184 -0.829173 -0.829158 -0.82914 
183 -0.837827 -0.837892 -0.837955 -0.838016 -0.838073 -0.838128 -0.83818 -0.838227 -0.838272 -0.838312 
184 -0.835859 -0.835763 -0.835668 -0.835573 -0.835479 -0.835386 -0.835296 -0.835208 -0.835123 -0.835042 
185 -0.87671 -0.876737 -0.87676 -0.876777 -0.87679 -0.876797 -0.876799 -0.876795 -0.876786 -0.876772 
186 -0.88832 -0.888364 -0.88841 -0.888457 -0.888504 -0.888551 -0.888598 -0.888643 -0.888687 -0.888728 
187 -0.834402 -0.834376 -0.834343 -0.834303 -0.834255 -0.834201 -0.834141 -0.834075 -0.834003 -0.833927 
188 -0.861597 -0.861675 -0.861757 -0.861841 -0.861929 -0.862019 -0.862111 -0.862204 -0.862299 -0.862395 
189 -0.884507 -0.884574 -0.884647 -0.884726 -0.88481 -0.884898 -0.88499 -0.885085 -0.885182 -0.885281 
190 -0.848864 -0.848828 -0.848791 -0.848753 -0.848715 -0.848675 -0.848635 -0.848594 -0.848552 -0.848509 
191 -0.850364 -0.850346 -0.850328 -0.850311 -0.850294 -0.850277 -0.850261 -0.850245 -0.85023 -0.850215 
192 -0.809318 -0.809391 -0.809461 -0.809527 -0.809589 -0.809648 -0.809703 -0.809754 -0.809802 -0.809846 
193 -0.850364 -0.850346 -0.850328 -0.850311 -0.850294 -0.850277 -0.850261 -0.850245 -0.85023 -0.850215 
194 -0.856767 -0.85672 -0.856676 -0.856634 -0.856596 -0.85656 -0.856528 -0.856499 -0.856474 -0.856451 
195 -0.854517 -0.854603 -0.854691 -0.854781 -0.854874 -0.854969 -0.855066 -0.855166 -0.855269 -0.855373 
196 -0.844866 -0.844892 -0.84492 -0.844949 -0.844979 -0.845011 -0.845044 -0.845078 -0.845114 -0.845151 
197 -0.848921 -0.848844 -0.848767 -0.848688 -0.848609 -0.848529 -0.848448 -0.848367 -0.848286 -0.848204 
198 -0.850364 -0.850346 -0.850328 -0.850311 -0.850294 -0.850277 -0.850261 -0.850245 -0.85023 -0.850215 
199 -0.796593 -0.796678 -0.796757 -0.796828 -0.796891 -0.796945 -0.796991 -0.797027 -0.797055 -0.797073 
200 -0.832919 -0.832993 -0.833067 -0.833141 -0.833216 -0.833291 -0.833368 -0.833446 -0.833525 -0.833606 
201 -0.903909 -0.904008 -0.904112 -0.904221 -0.904336 -0.904455 -0.904579 -0.904706 -0.904836 -0.904969 
202 -0.850364 -0.850346 -0.850328 -0.850311 -0.850294 -0.850277 -0.850261 -0.850245 -0.85023 -0.850215 
203 -0.867395 -0.867368 -0.867342 -0.867318 -0.867297 -0.867279 -0.867263 -0.867251 -0.867243 -0.867238 
204 -0.849706 -0.8497 -0.849695 -0.849691 -0.849688 -0.849686 -0.849685 -0.849685 -0.849686 -0.849689 
205 -0.894997 -0.895037 -0.895081 -0.895128 -0.895177 -0.895228 -0.895281 -0.895334 -0.895387 -0.89544 
206 -0.850364 -0.850346 -0.850328 -0.850311 -0.850294 -0.850277 -0.850261 -0.850245 -0.85023 -0.850215 
207 -0.775398 -0.775474 -0.775546 -0.775612 -0.775674 -0.77573 -0.775782 -0.775829 -0.775871 -0.775909 
208 -0.861603 -0.86172 -0.861838 -0.861958 -0.86208 -0.862203 -0.862329 -0.862455 -0.862583 -0.862711 
209 -0.88965 -0.889672 -0.889695 -0.88972 -0.889746 -0.889773 -0.8898 -0.889826 -0.889853 -0.889879 
210 -0.917838 -0.917956 -0.918078 -0.918201 -0.918328 -0.918457 -0.918588 -0.91872 -0.918854 -0.918989 
211 -0.850364 -0.850346 -0.850328 -0.850311 -0.850294 -0.850277 -0.850261 -0.850245 -0.85023 -0.850215 
212 -0.850364 -0.850346 -0.850328 -0.850311 -0.850294 -0.850277 -0.850261 -0.850245 -0.85023 -0.850215 
213 -0.841305 -0.841268 -0.841235 -0.841204 -0.841178 -0.841154 -0.841135 -0.841119 -0.841107 -0.841099 
214 -0.762458 -0.762549 -0.762634 -0.762712 -0.762784 -0.762849 -0.762906 -0.762956 -0.762998 -0.763032 
215 -0.794743 -0.794818 -0.794892 -0.794966 -0.795041 -0.795117 -0.795194 -0.795274 -0.795356 -0.795442 
216 -0.80173 -0.801798 -0.801868 -0.80194 -0.802014 -0.802092 -0.802174 -0.802261 -0.802353 -0.80245 
217 -0.849585 -0.849545 -0.849507 -0.849472 -0.849441 -0.849413 -0.849388 -0.849366 -0.849349 -0.849335 
218 -0.846808 -0.846936 -0.847062 -0.847188 -0.847314 -0.84744 -0.847568 -0.847697 -0.847827 -0.847959 
219 -0.850634 -0.850613 -0.850593 -0.850572 -0.850552 -0.850532 -0.850512 -0.850493 -0.850475 -0.850457 
220 -0.946713 -0.946787 -0.946863 -0.94694 -0.947021 -0.947103 -0.947189 -0.947278 -0.94737 -0.947465 
221 -0.788295 -0.788368 -0.788439 -0.788508 -0.788577 -0.788645 -0.788713 -0.788781 -0.78885 -0.788919 
222 -0.739778 -0.739916 -0.74005 -0.740182 -0.740311 -0.740438 -0.740564 -0.74069 -0.740814 -0.740937 
223 -0.901745 -0.901804 -0.901863 -0.901923 -0.901985 -0.902049 -0.902116 -0.902187 -0.902262 -0.902341 
224 -0.918351 -0.918412 -0.918479 -0.918552 -0.918631 -0.918716 -0.918807 -0.918902 -0.919002 -0.919106 
225 -0.832671 -0.832576 -0.832478 -0.832378 -0.832275 -0.832169 -0.832062 -0.831952 -0.831842 -0.83173 
226 -0.80116 -0.801246 -0.801332 -0.801417 -0.8015 -0.80158 -0.801656 -0.801727 -0.801793 -0.801853 
227 -0.890446 -0.890534 -0.890616 -0.890692 -0.890765 -0.890835 -0.890902 -0.890968 -0.891034 -0.891099 
228 -0.822154 -0.822155 -0.822154 -0.82215 -0.822142 -0.822132 -0.822117 -0.822098 -0.822075 -0.822047 
229 -0.850364 -0.850346 -0.850328 -0.850311 -0.850294 -0.850277 -0.850261 -0.850245 -0.85023 -0.850215 
230 -0.850364 -0.850346 -0.850328 -0.850311 -0.850294 -0.850277 -0.850261 -0.850245 -0.85023 -0.850215 
231 -0.850364 -0.850346 -0.850328 -0.850311 -0.850294 -0.850277 -0.850261 -0.850245 -0.85023 -0.850215 
232 -1.09882 -1.09899 -1.09916 -1.09933 -1.0995 -1.09967 -1.09984 -1.1 -1.10017 -1.10034 
233 -0.850361 -0.850343 -0.850325 -0.850308 -0.850291 -0.850274 -0.850258 -0.850242 -0.850227 -0.850212 
234 -0.981545 -0.981617 -0.981692 -0.981768 -0.981847 -0.981928 -0.982013 -0.982101 -0.982193 -0.982288 
235 -0.646504 -0.646555 -0.646593 -0.64662 -0.646639 -0.64665 -0.646656 -0.646659 -0.646659 -0.646659 
236 -0.908385 -0.908438 -0.908498 -0.908564 -0.908637 -0.908716 -0.9088 -0.90889 -0.908985 -0.909083 
237 -1.11331 -1.11347 -1.11362 -1.11377 -1.11391 -1.11405 -1.11419 -1.11432 -1.11446 -1.11459 
238 -0.851322 -0.851293 -0.851263 -0.851234 -0.851205 -0.851177 -0.851149 -0.851121 -0.851094 -0.851068 
239 -0.704401 -0.704407 -0.704401 -0.704385 -0.70436 -0.704329 -0.704293 -0.704256 -0.704219 -0.704183 
240 -0.761997 -0.762064 -0.762131 -0.762197 -0.762261 -0.762324 -0.762384 -0.762441 -0.762495 -0.762545 
241 -0.72737 -0.72745 -0.727525 -0.727596 -0.727664 -0.727729 -0.727791 -0.72785 -0.727907 -0.727961 
242 -0.850364 -0.850346 -0.850328 -0.850311 -0.850294 -0.850277 -0.850261 -0.850245 -0.85023 -0.850216 
243 -0.986791 -0.98685 -0.986911 -0.986975 -0.987042 -0.987112 -0.987185 -0.987262 -0.987341 -0.987424 
244 -1.12057 -1.12068 -1.12079 -1.12089 -1.121 -1.12112 -1.12123 -1.12134 -1.12146 -1.12158 
245 -0.519759 -0.519825 -0.519879 -0.519918 -0.519946 -0.519961 -0.519965 -0.519958 -0.519942 -0.519917 
246 -1.04921 -1.04928 -1.04935 -1.04942 -1.0495 -1.04958 -1.04967 -1.04976 -1.04986 -1.04996 
247 -0.849901 -0.849966 -0.850031 -0.850096 -0.85016 -0.850223 -0.850285 -0.850347 -0.850407 -0.850467 
248 -0.850364 -0.850346 -0.850328 -0.850311 -0.850294 -0.850277 -0.850261 -0.850245 -0.85023 -0.850215 
249 -0.607273 -0.607351 -0.607419 -0.607479 -0.607531 -0.607575 -0.607612 -0.607642 -0.607668 -0.607688 
250 -0.813533 -0.813605 -0.813679 -0.813753 -0.813825 -0.813896 -0.813963 -0.814026 -0.814083 -0.814134 
251 -0.767961 -0.768073 -0.768188 -0.768303 -0.768418 -0.768531 -0.768641 -0.768745 -0.768843 -0.768933 
252 -0.736813 -0.736848 -0.736882 -0.736914 -0.736944 -0.736974 -0.737004 -0.737033 -0.737062 -0.737092 
253 -0.850364 -0.850346 -0.850328 -0.850311 -0.850294 -0.850277 -0.850261 -0.850245 -0.85023 -0.850215 
254 -0.881439 -0.881447 -0.881454 -0.88146 -0.881466 -0.881471 -0.881475 -0.881478 -0.881478 -0.881477 
255 -0.850451 -0.850432 -0.850414 -0.850396 -0.850378 -0.850361 -0.850344 -0.850327 -0.850311 -0.850295 
256 -0.854801 -0.854751 -0.854704 -0.854659 -0.854617 -0.854577 -0.854541 -0.854507 -0.854475 -0.854447 
257 -1.04462 -1.04463 -1.04463 -1.04464 -1.04465 -1.04466 -1.04468 -1.0447 -1.04473 -1.04476 
258 -0.824993 -0.824953 -0.82491 -0.824864 -0.824814 -0.82476 -0.824701 -0.824638 -0.82457 -0.824497 
259 -0.869669 -0.869633 -0.869596 -0.869559 -0.869522 -0.869485 -0.869448 -0.869411 -0.869374 -0.869337 
260 -0.627 -0.627076 -0.627146 -0.627211 -0.62727 -0.627323 -0.627371 -0.627412 -0.627446 -0.627474 
261 -0.99284 -0.992876 -0.992915 -0.992956 -0.993001 -0.993048 -0.9931 -0.993155 -0.993213 -0.993275 
262 -1.02512 -1.02514 -1.02517 -1.0252 -1.02523 -1.02526 -1.0253 -1.02534 -1.02538 -1.02543 
263 -0.850379 -0.85036 -0.850342 -0.850324 -0.850306 -0.850289 -0.850272 -0.850255 -0.850239 -0.850224 
264 -0.836376 -0.836244 -0.836111 -0.835977 -0.835842 -0.835706 -0.835571 -0.835436 -0.835302 -0.83517 
265 -0.709194 -0.709238 -0.709282 -0.709324 -0.709365 -0.709406 -0.709445 -0.709485 -0.709523 -0.709561 
266 -0.669699 -0.669743 -0.669781 -0.669813 -0.66984 -0.669862 -0.669878 -0.66989 -0.669896 -0.669898 
267 -0.908453 -0.908489 -0.908528 -0.908569 -0.908614 -0.90866 -0.908709 -0.90876 -0.908812 -0.908866 
268 -0.84259 -0.842512 -0.842434 -0.842355 -0.842277 -0.842198 -0.842119 -0.842039 -0.841959 -0.841879 
269 -0.850364 -0.850346 -0.850329 -0.850311 -0.850294 -0.850278 -0.850261 -0.850246 -0.85023 -0.850216 
270 -1.0059 -1.0059 -1.00591 -1.00592 -1.00593 -1.00594 -1.00595 -1.00597 -1.00598 -1.00599 
271 -0.965364 -0.965395 -0.965428 -0.965464 -0.965503 -0.965544 -0.965588 -0.965635 -0.965685 -0.965737 
272 -0.689591 -0.689605 -0.689623 -0.689644 -0.689669 -0.689697 -0.689729 -0.689765 -0.689803 -0.689844 
273 -0.772504 -0.772552 -0.772607 -0.772669 -0.772735 -0.772807 -0.772882 -0.77296 -0.773039 -0.773119 
274 -0.732343 -0.732385 -0.732428 -0.732471 -0.732515 -0.732558 -0.732602 -0.732645 -0.732688 -0.73273 
275 -0.849458 -0.849432 -0.849406 -0.84938 -0.849355 -0.84933 -0.849306 -0.849283 -0.84926 -0.849238 
276 -0.977139 -0.977151 -0.977164 -0.977178 -0.977195 -0.977213 -0.977233 -0.977255 -0.977279 -0.977304 
277 -0.850364 -0.850346 -0.850328 -0.850311 -0.850294 -0.850277 -0.850261 -0.850245 -0.85023 -0.850215 
278 -0.713695 -0.713735 -0.713773 -0.71381 -0.713845 -0.713878 -0.713908 -0.713935 -0.713959 -0.713979 
279 -0.762681 -0.762726 -0.762776 -0.762829 -0.762884 -0.762942 -0.763002 -0.763063 -0.763124 -0.763185 
280 -0.935629 -0.935664 -0.935701 -0.935739 -0.935779 -0.93582 -0.935862 -0.935906 -0.935951 -0.935996 
281 -0.822849 -0.822745 -0.822646 -0.822552 -0.822465 -0.822384 -0.822311 -0.822245 -0.822187 -0.822136 
282 -0.939106 -0.939111 -0.939117 -0.939123 -0.939129 -0.939135 -0.93914 -0.939145 -0.939149 -0.939152 
283 -0.89395 -0.893955 -0.893961 -0.893968 -0.893976 -0.893985 -0.893995 -0.894004 -0.894014 -0.894023 
284 -0.798862 -0.798801 -0.798748 -0.798703 -0.798666 -0.798637 -0.798617 -0.798605 -0.7986 -0.798602 
285 -0.744195 -0.744103 -0.744015 -0.743932 -0.743856 -0.743787 -0.743728 -0.743678 -0.74364 -0.743615 
286 -0.850364 -0.850346 -0.850328 -0.850311 -0.850294 -0.850277 -0.850261 -0.850245 -0.85023 -0.850215 
287 -0.77728 -0.77726 -0.77724 -0.777219 -0.777199 -0.777178 -0.777159 -0.777142 -0.777126 -0.777113 
288 -0.925835 -0.925846 -0.925858 -0.925871 -0.925884 -0.925898 -0.925912 -0.925926 -0.92594 -0.925954 