VARIABLES = "Cell" "Mode 0" "Mode 1" "Mode 2" "Mode 3" "Mode 4" "Mode 5" "Mode 6" "Mode 7" "Mode 8" "Mode 9" 
ZONE T = Iteration8
0 0.256956 0.232483 0.202948 0.171404 0.139485 0.106201 0.0690371 0.0338885 0.0180494 -1.64113e-21 
1 0.254268 0.230701 0.201969 0.170929 0.138292 0.103675 0.0694013 0.0440165 0.0260872 -1.64113e-21 
2 0.234233 0.220103 0.203831 0.185299 0.161648 0.132929 0.10097 0.0676556 0.034052 -1.6676e-21 
3 0.205341 0.207204 0.187444 0.16684 0.149001 0.127884 0.0999427 0.0675699 0.0340356 -1.65436e-21 
4 0.293297 0.261995 0.231442 0.199916 0.167289 0.134382 0.101196 0.0676728 0.0340521 -1.64113e-21 
5 2.31228 1.28245 0.731018 0.430697 0.261549 0.164254 0.107301 0.0683484 0.0341161 -1.65436e-21 
6 -0.0499173 0.135122 0.170311 0.159268 0.134258 0.11128 0.090843 0.0655165 0.0340077 -1.65436e-21 
7 0.293128 0.26459 0.233774 0.201085 0.167675 0.134471 0.101211 0.0676743 0.0340521 -1.62789e-21 
8 0.272244 0.251638 0.227792 0.199125 0.16724 0.134404 0.101201 0.0676731 0.0340521 -1.65436e-21 
9 0.288658 0.2631 0.233391 0.201003 0.167656 0.134466 0.10121 0.0676742 0.0340521 -1.6676e-21 
10 0.216122 0.205714 0.190697 0.175593 0.156697 0.131368 0.100707 0.0676258 0.0340481 -1.6676e-21 
11 0.298694 0.266591 0.234324 0.201197 0.167691 0.134473 0.101211 0.0676743 0.0340521 -1.65436e-21 
12 0.228804 0.216173 0.205119 0.188763 0.164146 0.133901 0.101181 0.0676764 0.0340521 -1.6676e-21 
13 0.299311 0.266744 0.234349 0.201199 0.167691 0.134473 0.101211 0.0676743 0.0340521 -1.6676e-21 
14 0.232997 0.226178 0.214835 0.194351 0.166094 0.134255 0.101193 0.0676722 0.034052 -1.65436e-21 
15 0.298588 0.266587 0.234325 0.201196 0.167691 0.134473 0.101211 0.0676743 0.0340521 -1.64113e-21 
16 0.299318 0.266746 0.234349 0.201199 0.167691 0.134473 0.101211 0.0676743 0.0340521 -1.64113e-21 
17 0.368006 0.277596 0.223879 0.182242 0.14376 0.104462 0.0690752 0.0471601 0.0288617 -1.65436e-21 
18 0.275765 0.240719 0.207271 0.17351 0.139794 0.107031 0.0740106 0.037951 -0.000748019 -1.65436e-21 
19 0.28853 0.262917 0.233332 0.201009 0.167668 0.134471 0.101211 0.0676743 0.0340521 -1.6676e-21 
20 0.163383 0.182643 0.171163 0.15064 0.134437 0.119738 0.0975799 0.0673571 0.0340268 -1.64113e-21 
21 -0.243462 0.034138 0.114914 0.129704 0.115825 0.0926528 0.0738662 0.0575468 0.0327639 -1.65436e-21 
22 0.258073 0.246414 0.227043 0.199454 0.167472 0.134473 0.101214 0.0676743 0.0340521 -1.68083e-21 
23 0.295115 0.265538 0.23408 0.201153 0.167686 0.134473 0.101211 0.0676743 0.0340521 -1.65436e-21 
24 0.27131 0.255056 0.230787 0.200472 0.167608 0.13447 0.101211 0.0676742 0.0340521 -1.6676e-21 
25 0.299182 0.266721 0.234346 0.201198 0.167691 0.134473 0.101211 0.0676743 0.0340521 -1.6676e-21 
26 0.121629 0.161558 0.161216 0.14104 0.120745 0.107598 0.0919837 0.066299 0.0340601 -1.6676e-21 
27 0.298947 0.266674 0.23434 0.201198 0.167691 0.134473 0.101211 0.0676743 0.0340521 -1.68083e-21 
28 0.296993 0.266157 0.234239 0.201185 0.16769 0.134473 0.101211 0.0676743 0.0340521 -1.64113e-21 
29 0.299317 0.266746 0.23435 0.201199 0.167691 0.134473 0.101211 0.0676743 0.0340521 -1.65436e-21 
30 0.197573 0.181621 0.170749 0.164892 0.153388 0.131095 0.100886 0.067682 0.0340493 -1.65436e-21 
31 0.236591 0.223398 0.198717 0.169435 0.138574 0.105749 0.0686803 0.033609 0.0174805 -1.6676e-21 
32 0.287902 0.263523 0.233804 0.201183 0.167706 0.134476 0.101211 0.0676743 0.0340521 -1.65436e-21 
33 0.299261 0.266736 0.234348 0.201199 0.167691 0.134473 0.101211 0.0676743 0.0340521 -1.64113e-21 
34 0.201475 0.190161 0.185467 0.178265 0.160594 0.133334 0.101212 0.067692 0.0340518 -1.65436e-21 
35 0.184649 0.169285 0.151332 0.142812 0.137968 0.124722 0.0995469 0.0675983 0.0340488 -1.65436e-21 
36 0.217715 0.216751 0.211965 0.194468 0.166598 0.134476 0.101242 0.0676772 0.0340519 -1.65436e-21 
37 0.292493 0.264949 0.234025 0.201165 0.167691 0.134474 0.101211 0.0676743 0.0340521 -1.62789e-21 
38 0.232919 0.231616 0.221118 0.198049 0.167397 0.134534 0.101231 0.0676756 0.034052 -1.65436e-21 
39 0.267673 0.254843 0.231328 0.200814 0.167721 0.134493 0.101214 0.0676744 0.0340521 -1.64113e-21 
40 0.298816 0.26666 0.234341 0.201199 0.167692 0.134473 0.101211 0.0676743 0.0340521 -1.64113e-21 
41 0.20023 0.136046 0.129285 0.113589 0.0857294 0.0632024 0.057664 0.053662 0.0327246 -1.61466e-21 
42 0.298085 0.266523 0.234328 0.2012 0.167692 0.134473 0.101211 0.0676743 0.0340521 -1.6676e-21 
43 0.224984 0.151063 0.133023 0.110787 0.0892785 0.0809667 0.0780756 0.0628889 0.0338681 -1.64113e-21 
44 0.279844 0.260791 0.233274 0.201184 0.167738 0.134484 0.101212 0.0676743 0.0340521 -1.65436e-21 
45 0.223472 0.194506 0.164508 0.134389 0.103596 0.0672554 0.0266482 0.00190412 0.00776087 -1.6676e-21 
46 0.299297 0.266746 0.23435 0.201199 0.167691 0.134473 0.101211 0.0676743 0.0340521 -1.68083e-21 
47 0.246176 0.242689 0.226655 0.199726 0.167637 0.13452 0.101221 0.0676749 0.0340521 -1.72054e-21 
48 0.180203 0.166057 0.168509 0.17007 0.157973 0.132825 0.101151 0.0676879 0.034051 -1.6676e-21 
49 0.299187 0.266733 0.23435 0.201199 0.167691 0.134473 0.101211 0.0676743 0.0340521 -1.68083e-21 
50 0.229591 0.197724 0.16264 0.127289 0.0860405 0.0448105 0.024245 0.0298625 0.0277417 -1.64113e-21 
51 0.192016 0.189774 0.193082 0.185807 0.164235 0.134224 0.101279 0.0676866 0.0340516 -1.65436e-21 
52 0.196793 0.153794 0.120309 0.107187 0.1123 0.113284 0.0966633 0.0673455 0.0340516 -1.64113e-21 
53 0.294813 0.265834 0.234255 0.201205 0.167696 0.134474 0.101211 0.0676743 0.0340521 -1.7073e-21 
54 0.297526 0.266485 0.234352 0.20121 0.167694 0.134473 0.101211 0.0676743 0.0340521 -1.65436e-21 
55 0.205196 0.157981 0.119968 0.0835494 0.0733583 0.0835286 0.0848046 0.0652737 0.0340203 -1.6676e-21 
56 0.216503 0.180531 0.146207 0.111846 0.0786396 0.0473009 0.0135791 -0.0235679 -0.0424368 -1.62789e-21 
57 0.299354 0.266754 0.234351 0.201199 0.167691 0.134473 0.101211 0.0676743 0.0340521 -1.64113e-21 
58 0.28377 0.262643 0.233735 0.201217 0.167722 0.134479 0.101211 0.0676743 0.0340521 -1.68083e-21 
59 0.227165 0.231989 0.221887 0.19819 0.167335 0.134502 0.101226 0.0676757 0.034052 -1.58819e-21 
60 0.189747 0.144534 0.108825 0.100091 0.109943 0.112826 0.0965031 0.0671886 0.034038 -1.65436e-21 
61 0.292038 0.265242 0.234221 0.201229 0.167704 0.134475 0.101211 0.0676743 0.0340521 -1.65436e-21 
62 0.1666 0.131089 0.123551 0.133967 0.139591 0.127199 0.100263 0.0676514 0.0340528 -1.62789e-21 
63 0.176625 0.195364 0.203507 0.192014 0.166145 0.13445 0.101252 0.0676793 0.0340519 -1.65436e-21 
64 0.299316 0.266781 0.234359 0.2012 0.167691 0.134473 0.101211 0.0676743 0.0340521 -1.57495e-21 
65 0.297987 0.266638 0.234381 0.201212 0.167693 0.134473 0.101211 0.0676743 0.0340521 -1.64113e-21 
66 0.185969 0.158639 0.119833 0.0669045 0.0359011 0.0480617 0.0685724 0.0622272 0.0339638 -1.6676e-21 
67 0.274349 0.259172 0.232814 0.201076 0.167725 0.134486 0.101213 0.0676744 0.0340521 -1.68083e-21 
68 0.190558 0.153439 0.126704 0.104645 0.0564956 -0.00551542 -0.0146084 0.0216585 0.0286367 -1.68083e-21 
69 0.240755 0.242977 0.227311 0.199864 0.167603 0.134498 0.101217 0.0676747 0.0340521 -1.68083e-21 
70 0.299402 0.266766 0.234353 0.201199 0.167691 0.134473 0.101211 0.0676743 0.0340521 -1.7073e-21 
71 0.193097 0.161144 0.126855 0.089815 0.0604957 0.0362421 -0.0106276 -0.0657194 -0.0342441 -1.68083e-21 
72 0.182816 0.145516 0.0968017 0.0623785 0.0622119 0.0807439 0.0852963 0.0656122 0.0340269 -1.65436e-21 
73 0.295137 0.266089 0.234343 0.201222 0.167696 0.134473 0.101211 0.0676743 0.0340521 -1.65436e-21 
74 0.299427 0.26678 0.234354 0.201199 0.167691 0.134473 0.101211 0.0676743 0.0340521 -1.72054e-21 
75 0.29899 0.266788 0.234376 0.201203 0.167691 0.134473 0.101211 0.0676743 0.0340521 -1.61466e-21 
76 0.178396 0.142752 0.105872 0.0808437 0.0580822 0.00392303 -0.0522388 -0.0304325 0.0126441 -1.68083e-21 
77 0.173405 0.145756 0.119213 0.0715734 0.0137213 -0.00218136 0.0277079 0.0489024 0.0328814 -1.6676e-21 
78 0.127028 0.084397 0.0928172 0.124419 0.139848 0.128306 0.100519 0.0676523 0.034051 -1.65436e-21 
79 0.299379 0.266756 0.23435 0.201199 0.167691 0.134473 0.101211 0.0676743 0.0340521 -1.68083e-21 
80 0.212403 0.229402 0.222904 0.19894 0.167494 0.134493 0.101217 0.0676745 0.0340521 -1.6676e-21 
81 0.129809 0.163412 0.189849 0.188382 0.165588 0.134395 0.101242 0.0676785 0.0340521 -1.58819e-21 
82 0.281947 0.262716 0.233876 0.201233 0.16771 0.134474 0.101211 0.0676744 0.0340521 -1.60142e-21 
83 0.175644 0.143492 0.112146 0.078211 0.0421275 0.0118499 -0.014571 -0.0617546 -0.118651 -1.68083e-21 
84 0.168279 0.110514 0.0488612 0.0325764 0.062096 0.0914881 0.0909933 0.0665827 0.0340571 -1.62789e-21 
85 0.29186 0.265516 0.234349 0.20125 0.1677 0.134472 0.101211 0.0676743 0.0340521 -1.69407e-21 
86 0.137828 0.0696081 0.0474514 0.0777596 0.113442 0.119715 0.0990646 0.0675716 0.0340517 -1.61466e-21 
87 0.08959 0.0782332 0.114132 0.14912 0.15355 0.13261 0.101254 0.0677071 0.0340532 -1.58819e-21 
88 0.170442 0.20452 0.213278 0.196702 0.167299 0.134532 0.101228 0.0676749 0.034052 -1.7073e-21 
89 0.298836 0.266879 0.234415 0.201208 0.16769 0.134472 0.101211 0.0676743 0.0340521 -1.78671e-21 
90 0.0946876 0.121556 0.161584 0.176852 0.162986 0.134216 0.101283 0.067685 0.0340523 -1.65436e-21 
91 0.299419 0.266775 0.234351 0.201198 0.167691 0.134473 0.101211 0.0676743 0.0340521 -1.56172e-21 
92 0.243429 0.248524 0.230561 0.200866 0.167726 0.134477 0.101209 0.0676745 0.0340522 -1.58819e-21 
93 0.1438 0.128671 0.0902806 0.0131459 -0.0401983 -0.0136889 0.0409023 0.0558184 0.0334456 -1.56172e-21 
94 0.150039 0.115365 0.0798728 0.0542838 0.0305827 -0.0250465 -0.0861345 -0.0574106 0.00451759 -1.72054e-21 
95 0.268784 0.258707 0.23316 0.201187 0.167709 0.13447 0.10121 0.0676744 0.0340521 -1.65436e-21 
96 0.148326 0.110178 0.0426851 -0.00688477 0.00880702 0.0578041 0.0802354 0.0650375 0.0339794 -1.73377e-21 
97 0.29941 0.266763 0.234349 0.201198 0.167691 0.134473 0.101211 0.0676743 0.0340521 -1.62789e-21 
98 0.148169 0.116408 0.0813346 0.0467193 0.0226843 -0.00624937 -0.0695706 -0.114961 -0.0503885 -1.58819e-21 
99 0.293987 0.266121 0.234421 0.201236 0.167695 0.134473 0.101211 0.0676743 0.0340521 -1.58819e-21 
100 0.110148 0.0452113 0.0254545 0.0656198 0.111675 0.121643 0.100433 0.0679086 0.0340757 -1.74701e-21 
101 0.299226 0.266775 0.234354 0.201197 0.167691 0.134473 0.101211 0.0676743 0.0340521 -1.53525e-21 
102 0.29784 0.266902 0.234486 0.201225 0.167691 0.134472 0.101211 0.0676743 0.0340521 -1.69407e-21 
103 0.0793566 0.0444799 0.0660833 0.113582 0.138965 0.129798 0.101316 0.0678059 0.0340598 -1.7073e-21 
104 0.165154 0.20755 0.217317 0.199009 0.168106 0.1347 0.101243 0.0676745 0.034052 -1.56172e-21 
105 0.21231 0.235365 0.22752 0.200902 0.167985 0.134545 0.101214 0.0676743 0.0340523 -1.76024e-21 
106 0.115603 0.0881897 0.0699404 0.0279074 -0.0406821 -0.0608285 -0.00520666 0.0401171 0.0320975 -1.69407e-21 
107 0.121062 0.0842689 0.059503 0.0393449 -0.0143969 -0.0878606 -0.0806511 -0.00597569 0.0243997 -1.64113e-21 
108 0.28361 0.26371 0.234195 0.201278 0.167707 0.134472 0.101211 0.0676744 0.0340521 -1.60142e-21 
109 0.118394 0.0814788 0.0170371 -0.024894 0.00490005 0.0629319 0.0844162 0.0664695 0.0341735 -1.62789e-21 
110 0.108816 0.0511188 -0.00101515 0.00668443 0.0613319 0.100353 0.0964141 0.067894 0.0340993 -1.54848e-21 
111 0.299717 0.266945 0.23439 0.2012 0.16769 0.134473 0.101211 0.0676743 0.0340521 -1.6676e-21 
112 0.29951 0.266783 0.234353 0.201199 0.167691 0.134473 0.101211 0.0676743 0.0340521 -1.64113e-21 
113 0.0556841 0.109459 0.164443 0.181919 0.165641 0.134973 0.101385 0.0676832 0.0340524 -1.6676e-21 
114 0.124307 0.0925712 0.0595079 0.0231167 -0.00794438 -0.028318 -0.06446 -0.134589 -0.151478 -1.58819e-21 
115 0.299416 0.267198 0.234503 0.201221 0.167691 0.134473 0.101211 0.0676743 0.0340521 -1.64113e-21 
116 0.102338 0.161767 0.196537 0.193676 0.167777 0.134919 0.101298 0.0676767 0.034052 -1.62789e-21 
117 0.0918817 0.0741917 0.0383853 -0.0266505 -0.0567341 -0.0112123 0.0469093 0.0588054 0.0339109 -1.65436e-21 
118 0.0370417 -0.000830597 0.0349293 0.100795 0.13635 0.129916 0.101534 0.0678577 0.0340659 -1.62789e-21 
119 0.300014 0.266964 0.234385 0.2012 0.167691 0.134473 0.101211 0.0676743 0.0340521 -1.64113e-21 
120 0.193223 0.227945 0.225567 0.200709 0.168068 0.134593 0.101225 0.0676747 0.034052 -1.58819e-21 
121 0.278021 0.262732 0.234217 0.201307 0.167701 0.134471 0.101212 0.0676744 0.0340521 -1.72054e-21 
122 0.0957898 0.0605618 0.0296502 0.006086 -0.0284628 -0.0905572 -0.127613 -0.0641094 0.00735674 -1.65436e-21 
123 0.00806121 0.0238425 0.0886423 0.142293 0.153751 0.133546 0.101558 0.067729 0.0340572 -1.73377e-21 
124 0.299736 0.266839 0.234361 0.201199 0.167691 0.134473 0.101211 0.0676743 0.0340521 -1.65436e-21 
125 0.10063 0.0669952 0.0313574 0.000434962 -0.0214221 -0.0576546 -0.129052 -0.166279 -0.0690869 -1.68083e-21 
126 0.0647751 -0.00667086 -0.0327222 0.0161796 0.0838051 0.112427 0.0991714 0.06801 0.0341069 -1.72054e-21 
127 0.298895 0.267506 0.234658 0.201256 0.167698 0.134474 0.101211 0.0676744 0.0340521 -1.53525e-21 
128 0.10666 0.176473 0.20564 0.196321 0.167879 0.134736 0.101251 0.0676759 0.0340521 -1.69407e-21 
129 0.230527 0.244809 0.230018 0.200966 0.167806 0.134503 0.101215 0.0676745 0.0340521 -1.69407e-21 
130 0.0714117 0.0475181 0.0122799 -0.046421 -0.0893754 -0.0579461 0.0171752 0.0509706 0.0334726 -1.72054e-21 
131 0.30044 0.267181 0.234431 0.201202 0.16769 0.134473 0.101211 0.0676743 0.0340521 -1.73377e-21 
132 0.291051 0.26618 0.234699 0.201325 0.167709 0.134475 0.101211 0.0676744 0.0340521 -1.65436e-21 
133 0.06986 0.0395763 0.0162556 -0.0185443 -0.0815887 -0.130262 -0.0910985 -0.00634799 0.0241426 -1.56172e-21 
134 0.30011 0.267354 0.234486 0.201199 0.167685 0.134472 0.101211 0.0676744 0.0340521 -1.74701e-21 
135 0.0558053 -0.00755314 -0.0596331 -0.0434247 0.0291425 0.0863561 0.0934615 0.0679911 0.0342274 -1.69407e-21 
136 0.0797631 0.0475747 0.0140055 -0.0215429 -0.0527114 -0.0765174 -0.112344 -0.178226 -0.205417 -1.72054e-21 
137 0.299401 0.26674 0.234341 0.201197 0.167691 0.134473 0.101211 0.0676743 0.0340521 -1.6676e-21 
138 0.0673011 0.031701 -0.0381718 -0.0988729 -0.0772122 0.00481795 0.0633111 0.064107 0.0344491 -1.58819e-21 
139 -0.0404418 -0.0244669 0.050156 0.11965 0.145107 0.131784 0.101412 0.0677135 0.0340592 -1.6676e-21 
140 0.040397 0.123434 0.17736 0.186842 0.166233 0.134699 0.101271 0.067676 0.0340523 -1.6676e-21 
141 0.194488 0.225868 0.223292 0.199551 0.167691 0.134509 0.101213 0.067674 0.0340521 -1.64113e-21 
142 0.0526959 0.0199781 -0.00706545 -0.035016 -0.0818319 -0.14134 -0.148572 -0.0589415 0.0122739 -1.68083e-21 
143 0.299297 0.266724 0.234314 0.201185 0.167689 0.134473 0.101211 0.0676743 0.0340521 -1.65436e-21 
144 0.0574781 0.0229595 -0.00975845 -0.0367374 -0.0637197 -0.11164 -0.178603 -0.186677 -0.0750064 -1.68083e-21 
145 0.0173431 -0.059223 -0.0863425 -0.0343794 0.04875 0.0979559 0.096424 0.067972 0.0341365 -1.53525e-21 
146 -0.0345368 0.0419998 0.122657 0.163639 0.160796 0.134403 0.101395 0.0676899 0.0340533 -1.76024e-21 
147 0.299221 0.26668 0.234319 0.201191 0.16769 0.134473 0.101211 0.0676743 0.0340521 -1.65436e-21 
148 0.278334 0.262518 0.234116 0.20131 0.167711 0.13447 0.10121 0.0676743 0.0340521 -1.65436e-21 
149 0.113929 0.179702 0.205301 0.195424 0.16742 0.134612 0.101234 0.0676747 0.0340521 -1.50878e-21 
150 0.29748 0.26659 0.234268 0.201135 0.167672 0.134471 0.101211 0.0676744 0.0340521 -1.62789e-21 
151 -0.0424042 -0.08096 -0.0397568 0.0436128 0.107858 0.122343 0.100823 0.067801 0.0340782 -1.81318e-21 
152 0.0374984 0.0151394 -0.04028 -0.11259 -0.125569 -0.0419689 0.0448284 0.0621039 0.0349254 -1.6676e-21 
153 0.245015 0.250691 0.231382 0.200974 0.167692 0.134464 0.101209 0.0676744 0.0340521 -1.65436e-21 
154 0.0272012 -0.0371943 -0.105903 -0.107262 -0.0385902 0.0438047 0.0811047 0.0669609 0.0343964 -1.85288e-21 
155 0.0198697 -0.00802209 -0.0262623 -0.0624619 -0.138185 -0.192355 -0.12681 -0.00397038 0.0312289 -1.6676e-21 
156 0.298362 0.266604 0.23428 0.201167 0.167685 0.134473 0.101211 0.0676743 0.0340521 -1.78671e-21 
157 0.289609 0.265097 0.234169 0.20114 0.167665 0.134469 0.101211 0.0676744 0.0340521 -1.56172e-21 
158 0.0350033 0.0016058 -0.0336468 -0.0664701 -0.0900676 -0.113996 -0.165544 -0.231955 -0.208753 -1.64113e-21 
159 0.0944764 0.171615 0.203333 0.195357 0.167701 0.134783 0.101279 0.0676788 0.0340519 -1.68083e-21 
160 0.0118806 -0.0094209 -0.0404278 -0.104988 -0.16471 -0.136022 -0.0275648 0.0441787 0.0353761 -1.78671e-21 
161 0.299383 0.266746 0.234343 0.201197 0.167691 0.134473 0.101211 0.0676743 0.0340521 -1.77348e-21 
162 -0.0772223 0.0200087 0.117404 0.16397 0.161799 0.134994 0.101603 0.0677199 0.0340512 -1.61466e-21 
163 -0.0953305 -0.129107 -0.0653845 0.0394683 0.111307 0.12497 0.101589 0.0679371 0.0340555 -1.58819e-21 
164 0.229608 0.246172 0.230909 0.2013 0.167905 0.134523 0.101216 0.0676744 0.0340521 -1.68083e-21 
165 0.298888 0.266947 0.234431 0.201213 0.167694 0.134474 0.101211 0.0676743 0.0340521 -1.33672e-21 
166 0.174097 0.221276 0.223549 0.200185 0.167979 0.134592 0.101227 0.0676749 0.034052 -1.73377e-21 
167 0.00625724 0.110259 0.174653 0.187042 0.166753 0.135014 0.101371 0.0676868 0.0340516 -1.6676e-21 
168 -0.00220029 -0.0345137 -0.05788 -0.0836586 -0.138198 -0.209876 -0.214879 -0.0949454 0.00891437 -1.69407e-21 
169 0.00430559 -0.0698319 -0.157938 -0.165327 -0.0663977 0.0434514 0.0840579 0.0675941 0.0343018 -1.53525e-21 
170 -0.125287 -0.0750942 0.0314682 0.116495 0.14642 0.132956 0.10186 0.0677984 0.0340508 -1.54848e-21 
171 0.299608 0.266908 0.234385 0.201203 0.167692 0.134473 0.101211 0.0676743 0.0340521 -1.65436e-21 
172 0.0082163 -0.0280136 -0.0605177 -0.0824561 -0.105804 -0.162161 -0.240983 -0.24068 -0.0889149 -1.57495e-21 
173 0.287853 0.265166 0.234462 0.201296 0.16771 0.134475 0.101211 0.0676744 0.0340521 -1.81318e-21 
174 0.299593 0.266825 0.234362 0.2012 0.167691 0.134473 0.101211 0.0676743 0.0340521 -1.61466e-21 
175 -0.00775669 -0.0312011 -0.106058 -0.195352 -0.188022 -0.0757469 0.0301334 0.0587352 0.0345764 -1.61466e-21 
176 0.296762 0.266932 0.234569 0.201256 0.167699 0.134474 0.101211 0.0676744 0.0340521 -1.89259e-21 
177 -0.0630104 -0.14961 -0.161315 -0.0778532 0.0338119 0.0974485 0.0976643 0.0682412 0.0341004 -1.65436e-21 
178 0.264899 0.259101 0.233755 0.201439 0.167783 0.134486 0.101211 0.0676742 0.0340521 -1.72054e-21 
179 0.0295233 0.145246 0.19718 0.195098 0.167878 0.134761 0.10125 0.0676733 0.0340517 -1.65436e-21 
180 0.139576 0.209097 0.221187 0.200193 0.168065 0.134584 0.101217 0.0676731 0.034052 -1.62789e-21 
181 0.299626 0.267028 0.234433 0.201212 0.167692 0.134473 0.101211 0.0676743 0.0340521 -1.65436e-21 
182 0.298349 0.267167 0.234573 0.20125 0.167697 0.134473 0.101211 0.0676743 0.0340521 -1.42937e-21 
183 -0.0402424 -0.0631179 -0.0689341 -0.11369 -0.228183 -0.300989 -0.195507 -0.0296765 0.0260604 -1.76024e-21 
184 -0.0430483 -0.0598172 -0.100804 -0.185531 -0.241113 -0.175784 -0.0409487 0.036661 0.0326528 -1.79995e-21 
185 0.29959 0.266819 0.23436 0.201199 0.167691 0.134473 0.101211 0.0676743 0.0340521 -1.65436e-21 
186 -0.0166766 -0.0490442 -0.0843226 -0.120354 -0.147608 -0.168799 -0.212847 -0.286278 -0.287821 -1.77348e-21 
187 -0.105519 -0.193898 -0.201336 -0.0886097 0.0437483 0.103813 0.0984245 0.0680114 0.0340836 -1.65436e-21 
188 -0.154223 -0.122971 -0.00505064 0.103496 0.143689 0.131956 0.101375 0.0677092 0.0340525 -1.65436e-21 
189 0.238757 0.250892 0.232196 0.201284 0.167748 0.134464 0.101205 0.0676736 0.0340521 -1.50878e-21 
190 0.163077 0.22035 0.224536 0.200522 0.16789 0.134506 0.101204 0.0676724 0.034052 -1.77348e-21 
191 -0.0427238 0.0874119 0.170089 0.187649 0.166861 0.13473 0.101242 0.0676679 0.0340514 -1.64113e-21 
192 -0.145635 -0.191476 -0.124274 0.0106445 0.103574 0.122605 0.100708 0.0678214 0.0340592 -1.65436e-21 
193 -0.15528 -0.0397888 0.0867426 0.154756 0.159824 0.134431 0.101435 0.0676986 0.0340521 -1.65436e-21 
194 -0.0778689 -0.161785 -0.223961 -0.175746 -0.0403983 0.0642232 0.0897028 0.067674 0.0341968 -1.64113e-21 
195 0.295113 0.267015 0.234781 0.201335 0.167711 0.134473 0.101211 0.0676743 0.0340521 -1.81318e-21 
196 0.299822 0.267066 0.234433 0.201208 0.16769 0.134473 0.101211 0.0676743 0.0340521 -1.68083e-21 
197 0.0540301 0.157477 0.201738 0.195962 0.167691 0.134603 0.101213 0.06767 0.0340518 -1.74701e-21 
198 0.240059 0.250126 0.231723 0.201381 0.167937 0.134546 0.101222 0.0676752 0.0340521 -1.65436e-21 
199 -0.0702023 -0.0868732 -0.144501 -0.230733 -0.253141 -0.15263 -0.017782 0.0426468 0.0327702 -1.60142e-21 
200 0.299761 0.266916 0.234383 0.201201 0.167691 0.134473 0.101211 0.0676743 0.0340521 -1.6676e-21 
201 -0.0608653 -0.0996415 -0.123684 -0.137054 -0.184966 -0.277551 -0.292332 -0.129666 0.00271636 -1.58819e-21 
202 -0.0496376 -0.086191 -0.122622 -0.145707 -0.164719 -0.22292 -0.31184 -0.294162 -0.110457 -1.56172e-21 
203 -0.117118 -0.182428 -0.180074 -0.0837382 0.0336242 0.0951827 0.0956197 0.0677061 0.0340965 -1.64113e-21 
204 0.282474 0.264357 0.234653 0.201466 0.167764 0.134484 0.101212 0.0676743 0.0340521 -1.53525e-21 
205 -0.0756667 -0.134437 -0.221545 -0.249255 -0.162922 -0.026296 0.0570898 0.0628654 0.0341308 -1.7073e-21 
206 0.298807 0.267323 0.234618 0.201257 0.167696 0.134472 0.101211 0.0676743 0.0340521 -1.6676e-21 
207 -0.100204 -0.118222 -0.130695 -0.185173 -0.279845 -0.292412 -0.168999 -0.0231421 0.0256763 -1.65436e-21 
208 0.0453053 0.154213 0.19969 0.195479 0.168131 0.134975 0.101329 0.0676854 0.0340522 -1.57495e-21 
209 -0.183932 -0.0653717 0.0657178 0.141892 0.155925 0.134546 0.101872 0.0678052 0.034057 -1.65436e-21 
210 -0.0714988 -0.103413 -0.138513 -0.17235 -0.195562 -0.219586 -0.277513 -0.342752 -0.301045 -1.85288e-21 
211 0.29966 0.266842 0.234363 0.201199 0.167691 0.134473 0.101211 0.0676743 0.0340521 -1.54848e-21 
212 0.163768 0.217951 0.223016 0.200489 0.168299 0.134731 0.101259 0.0676784 0.0340521 -1.48231e-21 
213 -0.203216 -0.238129 -0.168536 -0.0428502 0.0650892 0.109113 0.0992591 0.0681673 0.0341321 -1.65436e-21 
214 -0.106415 -0.179154 -0.268715 -0.286684 -0.186471 -0.0355417 0.0569522 0.0647534 0.0346262 -1.4029e-21 
215 -0.0676255 0.0709814 0.159232 0.183627 0.166884 0.135431 0.101525 0.067712 0.0340528 -1.6676e-21 
216 -0.234013 -0.161272 -0.0288258 0.0835309 0.134556 0.130929 0.102112 0.0679763 0.0340683 -1.62789e-21 
217 -0.168237 -0.252457 -0.25417 -0.163266 -0.0325308 0.0651196 0.0904849 0.0682746 0.0343256 -1.62789e-21 
218 0.283947 0.265396 0.234974 0.201486 0.167745 0.134478 0.101211 0.0676744 0.0340521 -1.7073e-21 
219 0.299395 0.267309 0.234538 0.201226 0.167691 0.134473 0.101211 0.0676743 0.0340521 -1.65436e-21 
220 0.20567 0.241184 0.231361 0.202052 0.168167 0.134566 0.101218 0.0676743 0.0340521 -1.7073e-21 
221 0.299748 0.266848 0.234357 0.201197 0.167691 0.134473 0.101211 0.0676743 0.0340521 -1.65436e-21 
222 -0.100564 -0.134547 -0.170959 -0.200773 -0.220469 -0.262008 -0.343167 -0.369828 -0.149621 -1.4029e-21 
223 -0.124932 -0.149215 -0.164064 -0.211857 -0.301291 -0.334119 -0.196882 -0.0223115 0.0276699 -1.6676e-21 
224 0.256842 0.258589 0.23446 0.201797 0.167867 0.134495 0.101212 0.0676743 0.0340521 -1.58819e-21 
225 -0.125527 -0.151912 -0.222101 -0.307597 -0.303461 -0.192387 -0.0370426 0.0437626 0.0341449 -1.89259e-21 
226 -0.259473 -0.164452 -0.0136917 0.104967 0.147255 0.1342 0.102027 0.0677795 0.0340492 -1.85288e-21 
227 0.300004 0.267005 0.234385 0.201197 0.16769 0.134473 0.101211 0.0676743 0.0340521 -1.7073e-21 
228 0.295829 0.267275 0.234779 0.201302 0.167702 0.134473 0.101211 0.0676743 0.0340521 -1.58819e-21 
229 -0.123909 -0.162431 -0.187305 -0.201177 -0.25167 -0.351859 -0.353277 -0.165668 -0.00168586 -1.65436e-21 
230 0.299601 0.266792 0.234348 0.201196 0.167691 0.134473 0.101211 0.0676743 0.0340521 -1.76024e-21 
231 -0.113264 -0.14498 -0.178349 -0.215066 -0.246765 -0.268572 -0.307457 -0.387349 -0.39267 -1.77348e-21 
232 -0.193169 -0.296372 -0.302993 -0.164853 -0.00146532 0.0859937 0.0947056 0.0676842 0.0340822 -1.74701e-21 
233 -0.0874876 0.0782122 0.172573 0.191241 0.168897 0.135342 0.101328 0.0676729 0.0340517 -1.57495e-21 
234 0.156037 0.223011 0.228004 0.202363 0.168457 0.134595 0.101207 0.0676719 0.034052 -1.72054e-21 
235 -0.294339 -0.284842 -0.158287 0.00325776 0.104966 0.124857 0.101415 0.0678299 0.0340423 -1.52201e-21 
236 -0.218452 -0.0464698 0.0998423 0.165219 0.164432 0.135597 0.101517 0.0676728 0.0340499 -1.64113e-21 
237 -0.146267 -0.162399 -0.250815 -0.368695 -0.359564 -0.175413 -0.00286887 0.0524778 0.0339237 -1.42937e-21 
238 0.217134 0.245579 0.232464 0.202086 0.168048 0.13451 0.101206 0.0676731 0.034052 -1.82641e-21 
239 0.0430461 0.168172 0.211961 0.200866 0.169191 0.134854 0.101224 0.0676689 0.0340518 -1.61466e-21 
240 0.300286 0.267051 0.234379 0.20119 0.167688 0.134472 0.101211 0.0676743 0.0340521 -1.53525e-21 
241 -0.151572 -0.234031 -0.34198 -0.32877 -0.169195 -0.00316932 0.0704174 0.0650944 0.0340813 -1.4029e-21 
242 -0.148481 -0.183625 -0.211068 -0.230942 -0.277038 -0.363385 -0.385378 -0.198405 -0.0141473 -1.65436e-21 
243 0.299849 0.266853 0.234347 0.201191 0.167689 0.134473 0.101211 0.0676743 0.0340521 -1.49554e-21 
244 -0.140996 -0.17551 -0.209921 -0.235746 -0.25654 -0.309812 -0.405389 -0.405697 -0.168352 -1.64113e-21 
245 -0.330481 -0.311303 -0.121264 0.0552346 0.130382 0.13071 0.101863 0.0678283 0.0340586 -1.52201e-21 
246 0.296591 0.267521 0.234821 0.201302 0.167699 0.134472 0.101211 0.0676743 0.0340521 -1.79995e-21 
247 -0.284482 -0.122932 0.0608331 0.151287 0.160411 0.134866 0.101469 0.0676808 0.0340501 -1.78671e-21 
248 0.246009 0.25875 0.23593 0.202425 0.167981 0.134496 0.101208 0.0676738 0.0340521 -1.65436e-21 
249 -0.18596 -0.189522 -0.211093 -0.315128 -0.416769 -0.329651 -0.110567 0.0237605 0.032964 -1.68083e-21 
250 0.300603 0.26745 0.23449 0.201199 0.167685 0.134472 0.101211 0.0676743 0.0340521 -1.74701e-21 
251 -0.181175 -0.208663 -0.20924 -0.243764 -0.370348 -0.451684 -0.296395 -0.0626553 0.0245406 -1.6676e-21 
252 0.285257 0.26663 0.235482 0.201608 0.167757 0.134475 0.10121 0.0676743 0.0340521 -1.65436e-21 
253 -0.156066 -0.18891 -0.223499 -0.257008 -0.280916 -0.303319 -0.361088 -0.445913 -0.396641 -1.76024e-21 
254 0.300055 0.266852 0.234342 0.201194 0.167691 0.134473 0.101211 0.0676743 0.0340521 -1.77348e-21 
255 -0.185316 -0.238587 -0.333128 -0.365298 -0.231471 -0.0340239 0.0664798 0.0669206 0.034591 -1.74701e-21 
256 -0.284522 -0.347861 -0.240699 -0.0359158 0.0926641 0.122661 0.102032 0.0680337 0.0340841 -1.73377e-21 
257 0.0821666 0.198943 0.224566 0.203488 0.169234 0.134764 0.101214 0.0676688 0.0340521 -1.78671e-21 
258 0.211184 0.254298 0.238257 0.203957 0.168378 0.134538 0.101209 0.0676734 0.0340522 -1.52201e-21 
259 -0.219656 -0.331694 -0.389893 -0.263508 -0.0610446 0.0680317 0.094574 0.0688626 0.0342386 -1.57495e-21 
260 -0.298275 -0.0790295 0.101333 0.171499 0.167163 0.13607 0.10148 0.0676503 0.0340477 -1.62789e-21 
261 -0.200934 -0.209692 -0.271994 -0.383269 -0.404169 -0.234118 -0.0281122 0.0505298 0.0352969 -1.79995e-21 
262 0.295367 0.271034 0.236645 0.201777 0.16777 0.134479 0.101212 0.0676743 0.0340521 -1.61466e-21 
263 0.303077 0.267968 0.234522 0.201188 0.167685 0.134473 0.101211 0.0676744 0.0340521 -1.62789e-21 
264 -0.201013 -0.234918 -0.254482 -0.274507 -0.342044 -0.441536 -0.388012 -0.124576 0.0197826 -1.64113e-21 
265 -0.37316 -0.259002 -0.0570658 0.0935555 0.146221 0.134512 0.102095 0.0677038 0.0340359 -1.76024e-21 
266 -0.189291 -0.224683 -0.255448 -0.27595 -0.304573 -0.37805 -0.453289 -0.368137 -0.132993 -1.69407e-21 
267 -0.0817465 0.102201 0.190213 0.197838 0.169937 0.135199 0.101228 0.0676565 0.0340518 -1.65436e-21 
268 0.301503 0.267191 0.234363 0.201184 0.167689 0.134473 0.101211 0.0676743 0.0340521 -1.7073e-21 
269 0.269713 0.270334 0.239426 0.202961 0.167962 0.134472 0.101204 0.0676733 0.0340521 -1.972e-21 
270 0.303944 0.269894 0.235258 0.201322 0.167693 0.134472 0.101211 0.0676744 0.0340521 -1.37643e-21 
271 -0.224116 -0.244537 -0.267539 -0.32917 -0.399835 -0.373458 -0.184554 0.000411225 0.0365313 -1.29702e-21 
272 -0.226202 -0.313462 -0.405041 -0.348878 -0.123744 0.053802 0.095226 0.0699859 0.0343111 -1.74701e-21 
273 -0.204609 -0.238189 -0.272032 -0.301453 -0.324421 -0.3591 -0.424918 -0.463538 -0.351191 -1.53525e-21 
274 0.30126 0.267152 0.234329 0.201155 0.167677 0.13447 0.101211 0.0676743 0.0340521 -1.53525e-21 
275 -0.379529 -0.352437 -0.179667 0.0194467 0.126766 0.135551 0.103674 0.0679343 0.0340312 -1.56172e-21 
276 -0.249008 -0.25411 -0.308267 -0.421719 -0.446477 -0.2664 -0.0518641 0.0461622 0.0363336 -1.87935e-21 
277 -0.337944 -0.4343 -0.383329 -0.18241 0.0283816 0.11628 0.105176 0.0688126 0.0340566 -1.91906e-21 
278 -0.248996 -0.292396 -0.395129 -0.435924 -0.269899 -0.0306704 0.0793548 0.0719364 0.0346845 -1.41613e-21 
279 -0.110202 0.0714483 0.178644 0.198101 0.171739 0.1356 0.101118 0.0676041 0.0340467 -1.79995e-21 
280 0.26423 0.271685 0.242344 0.204066 0.167919 0.134311 0.101156 0.0676687 0.034052 -1.53525e-21 
281 0.305153 0.271491 0.235874 0.201322 0.167602 0.134436 0.101205 0.067674 0.0340521 -1.91906e-21 
282 0.0535201 0.185217 0.227673 0.209007 0.171423 0.134957 0.101105 0.0676417 0.0340514 -1.19114e-21 
283 0.302894 0.267812 0.234393 0.2011 0.167648 0.134464 0.10121 0.0676743 0.0340521 -1.972e-21 
284 -0.352441 -0.204094 -0.00857439 0.122125 0.157678 0.137474 0.102575 0.0678284 0.0340577 -1.46907e-21 
285 -0.230486 -0.265461 -0.297508 -0.322405 -0.351087 -0.408418 -0.475405 -0.44358 -0.162437 -1.65436e-21 
286 0.199456 0.252912 0.243463 0.207288 0.16903 0.134387 0.101114 0.0676601 0.0340519 -1.62789e-21 
287 -0.30526 -0.408168 -0.440832 -0.32248 -0.106881 0.0617838 0.101013 0.0713874 0.0342868 -1.65436e-21 
288 -0.277759 -0.305125 -0.322708 -0.377443 -0.456465 -0.397313 -0.165625 0.013379 0.0388426 -1.87935e-21 
289 0.298663 0.274447 0.238341 0.202006 0.167606 0.134386 0.101192 0.0676729 0.0340521 -1.48231e-21 
290 0.305051 0.269164 0.234764 0.201115 0.167624 0.134456 0.101209 0.0676742 0.0340521 -1.32349e-21 