VARIABLES = "Cell" "Mode 0" "Mode 1" "Mode 2" "Mode 3" "Mode 4" "Mode 5" "Mode 6" "Mode 7" "Mode 8" "Mode 9" 
ZONE T = Iteration2
0 0.0690371 0.0338885 0.0180494 -1.64113e-21 0 0 0 0 0 0 
1 0.0694013 0.0440165 0.0260872 -1.64113e-21 0 0 0 0 0 0 
2 0.10097 0.0676556 0.034052 -1.6676e-21 0 0 0 0 0 0 
3 0.0999427 0.0675699 0.0340356 -1.65436e-21 0 0 0 0 0 0 
4 0.101196 0.0676728 0.0340521 -1.64113e-21 0 0 0 0 0 0 
5 0.107301 0.0683484 0.0341161 -1.65436e-21 0 0 0 0 0 0 
6 0.090843 0.0655165 0.0340077 -1.65436e-21 0 0 0 0 0 0 
7 0.101211 0.0676743 0.0340521 -1.62789e-21 0 0 0 0 0 0 
8 0.101201 0.0676731 0.0340521 -1.65436e-21 0 0 0 0 0 0 
9 0.10121 0.0676742 0.0340521 -1.6676e-21 0 0 0 0 0 0 
10 0.100707 0.0676258 0.0340481 -1.6676e-21 0 0 0 0 0 0 
11 0.101211 0.0676743 0.0340521 -1.65436e-21 0 0 0 0 0 0 
12 0.101181 0.0676764 0.0340521 -1.6676e-21 0 0 0 0 0 0 
13 0.101211 0.0676743 0.0340521 -1.6676e-21 0 0 0 0 0 0 
14 0.101193 0.0676722 0.034052 -1.65436e-21 0 0 0 0 0 0 
15 0.101211 0.0676743 0.0340521 -1.64113e-21 0 0 0 0 0 0 
16 0.101211 0.0676743 0.0340521 -1.64113e-21 0 0 0 0 0 0 
17 0.0690752 0.0471601 0.0288617 -1.65436e-21 0 0 0 0 0 0 
18 0.0740106 0.037951 -0.000748019 -1.65436e-21 0 0 0 0 0 0 
19 0.101211 0.0676743 0.0340521 -1.6676e-21 0 0 0 0 0 0 
20 0.0975799 0.0673571 0.0340268 -1.64113e-21 0 0 0 0 0 0 
21 0.0738662 0.0575468 0.0327639 -1.65436e-21 0 0 0 0 0 0 
22 0.101214 0.0676743 0.0340521 -1.68083e-21 0 0 0 0 0 0 
23 0.101211 0.0676743 0.0340521 -1.65436e-21 0 0 0 0 0 0 
24 0.101211 0.0676742 0.0340521 -1.6676e-21 0 0 0 0 0 0 
25 0.101211 0.0676743 0.0340521 -1.6676e-21 0 0 0 0 0 0 
26 0.0919837 0.066299 0.0340601 -1.6676e-21 0 0 0 0 0 0 
27 0.101211 0.0676743 0.0340521 -1.68083e-21 0 0 0 0 0 0 
28 0.101211 0.0676743 0.0340521 -1.64113e-21 0 0 0 0 0 0 
29 0.101211 0.0676743 0.0340521 -1.65436e-21 0 0 0 0 0 0 
30 0.100886 0.067682 0.0340493 -1.65436e-21 0 0 0 0 0 0 
31 0.0686803 0.033609 0.0174805 -1.6676e-21 0 0 0 0 0 0 
32 0.101211 0.0676743 0.0340521 -1.65436e-21 0 0 0 0 0 0 
33 0.101211 0.0676743 0.0340521 -1.64113e-21 0 0 0 0 0 0 
34 0.101212 0.067692 0.0340518 -1.65436e-21 0 0 0 0 0 0 
35 0.0995469 0.0675983 0.0340488 -1.65436e-21 0 0 0 0 0 0 
36 0.101242 0.0676772 0.0340519 -1.65436e-21 0 0 0 0 0 0 
37 0.101211 0.0676743 0.0340521 -1.62789e-21 0 0 0 0 0 0 
38 0.101231 0.0676756 0.034052 -1.65436e-21 0 0 0 0 0 0 
39 0.101214 0.0676744 0.0340521 -1.64113e-21 0 0 0 0 0 0 
40 0.101211 0.0676743 0.0340521 -1.64113e-21 0 0 0 0 0 0 
41 0.057664 0.053662 0.0327246 -1.61466e-21 0 0 0 0 0 0 
42 0.101211 0.0676743 0.0340521 -1.6676e-21 0 0 0 0 0 0 
43 0.0780756 0.0628889 0.0338681 -1.64113e-21 0 0 0 0 0 0 
44 0.101212 0.0676743 0.0340521 -1.65436e-21 0 0 0 0 0 0 
45 0.0266482 0.00190412 0.00776087 -1.6676e-21 0 0 0 0 0 0 
46 0.101211 0.0676743 0.0340521 -1.68083e-21 0 0 0 0 0 0 
47 0.101221 0.0676749 0.0340521 -1.72054e-21 0 0 0 0 0 0 
48 0.101151 0.0676879 0.034051 -1.6676e-21 0 0 0 0 0 0 
49 0.101211 0.0676743 0.0340521 -1.68083e-21 0 0 0 0 0 0 
50 0.024245 0.0298625 0.0277417 -1.64113e-21 0 0 0 0 0 0 
51 0.101279 0.0676866 0.0340516 -1.65436e-21 0 0 0 0 0 0 
52 0.0966633 0.0673455 0.0340516 -1.64113e-21 0 0 0 0 0 0 
53 0.101211 0.0676743 0.0340521 -1.7073e-21 0 0 0 0 0 0 
54 0.101211 0.0676743 0.0340521 -1.65436e-21 0 0 0 0 0 0 
55 0.0848046 0.0652737 0.0340203 -1.6676e-21 0 0 0 0 0 0 
56 0.0135791 -0.0235679 -0.0424368 -1.62789e-21 0 0 0 0 0 0 
57 0.101211 0.0676743 0.0340521 -1.64113e-21 0 0 0 0 0 0 
58 0.101211 0.0676743 0.0340521 -1.68083e-21 0 0 0 0 0 0 
59 0.101226 0.0676757 0.034052 -1.58819e-21 0 0 0 0 0 0 
60 0.0965031 0.0671886 0.034038 -1.65436e-21 0 0 0 0 0 0 
61 0.101211 0.0676743 0.0340521 -1.65436e-21 0 0 0 0 0 0 
62 0.100263 0.0676514 0.0340528 -1.62789e-21 0 0 0 0 0 0 
63 0.101252 0.0676793 0.0340519 -1.65436e-21 0 0 0 0 0 0 
64 0.101211 0.0676743 0.0340521 -1.57495e-21 0 0 0 0 0 0 
65 0.101211 0.0676743 0.0340521 -1.64113e-21 0 0 0 0 0 0 
66 0.0685724 0.0622272 0.0339638 -1.6676e-21 0 0 0 0 0 0 
67 0.101213 0.0676744 0.0340521 -1.68083e-21 0 0 0 0 0 0 
68 -0.0146084 0.0216585 0.0286367 -1.68083e-21 0 0 0 0 0 0 
69 0.101217 0.0676747 0.0340521 -1.68083e-21 0 0 0 0 0 0 
70 0.101211 0.0676743 0.0340521 -1.7073e-21 0 0 0 0 0 0 
71 -0.0106276 -0.0657194 -0.0342441 -1.68083e-21 0 0 0 0 0 0 
72 0.0852963 0.0656122 0.0340269 -1.65436e-21 0 0 0 0 0 0 
73 0.101211 0.0676743 0.0340521 -1.65436e-21 0 0 0 0 0 0 
74 0.101211 0.0676743 0.0340521 -1.72054e-21 0 0 0 0 0 0 
75 0.101211 0.0676743 0.0340521 -1.61466e-21 0 0 0 0 0 0 
76 -0.0522388 -0.0304325 0.0126441 -1.68083e-21 0 0 0 0 0 0 
77 0.0277079 0.0489024 0.0328814 -1.6676e-21 0 0 0 0 0 0 
78 0.100519 0.0676523 0.034051 -1.65436e-21 0 0 0 0 0 0 
79 0.101211 0.0676743 0.0340521 -1.68083e-21 0 0 0 0 0 0 
80 0.101217 0.0676745 0.0340521 -1.6676e-21 0 0 0 0 0 0 
81 0.101242 0.0676785 0.0340521 -1.58819e-21 0 0 0 0 0 0 
82 0.101211 0.0676744 0.0340521 -1.60142e-21 0 0 0 0 0 0 
83 -0.014571 -0.0617546 -0.118651 -1.68083e-21 0 0 0 0 0 0 
84 0.0909933 0.0665827 0.0340571 -1.62789e-21 0 0 0 0 0 0 
85 0.101211 0.0676743 0.0340521 -1.69407e-21 0 0 0 0 0 0 
86 0.0990646 0.0675716 0.0340517 -1.61466e-21 0 0 0 0 0 0 
87 0.101254 0.0677071 0.0340532 -1.58819e-21 0 0 0 0 0 0 
88 0.101228 0.0676749 0.034052 -1.7073e-21 0 0 0 0 0 0 
89 0.101211 0.0676743 0.0340521 -1.78671e-21 0 0 0 0 0 0 
90 0.101283 0.067685 0.0340523 -1.65436e-21 0 0 0 0 0 0 
91 0.101211 0.0676743 0.0340521 -1.56172e-21 0 0 0 0 0 0 
92 0.101209 0.0676745 0.0340522 -1.58819e-21 0 0 0 0 0 0 
93 0.0409023 0.0558184 0.0334456 -1.56172e-21 0 0 0 0 0 0 
94 -0.0861345 -0.0574106 0.00451759 -1.72054e-21 0 0 0 0 0 0 
95 0.10121 0.0676744 0.0340521 -1.65436e-21 0 0 0 0 0 0 
96 0.0802354 0.0650375 0.0339794 -1.73377e-21 0 0 0 0 0 0 
97 0.101211 0.0676743 0.0340521 -1.62789e-21 0 0 0 0 0 0 
98 -0.0695706 -0.114961 -0.0503885 -1.58819e-21 0 0 0 0 0 0 
99 0.101211 0.0676743 0.0340521 -1.58819e-21 0 0 0 0 0 0 
100 0.100433 0.0679086 0.0340757 -1.74701e-21 0 0 0 0 0 0 
101 0.101211 0.0676743 0.0340521 -1.53525e-21 0 0 0 0 0 0 
102 0.101211 0.0676743 0.0340521 -1.69407e-21 0 0 0 0 0 0 
103 0.101316 0.0678059 0.0340598 -1.7073e-21 0 0 0 0 0 0 
104 0.101243 0.0676745 0.034052 -1.56172e-21 0 0 0 0 0 0 
105 0.101214 0.0676743 0.0340523 -1.76024e-21 0 0 0 0 0 0 
106 -0.00520666 0.0401171 0.0320975 -1.69407e-21 0 0 0 0 0 0 
107 -0.0806511 -0.00597569 0.0243997 -1.64113e-21 0 0 0 0 0 0 
108 0.101211 0.0676744 0.0340521 -1.60142e-21 0 0 0 0 0 0 
109 0.0844162 0.0664695 0.0341735 -1.62789e-21 0 0 0 0 0 0 
110 0.0964141 0.067894 0.0340993 -1.54848e-21 0 0 0 0 0 0 
111 0.101211 0.0676743 0.0340521 -1.6676e-21 0 0 0 0 0 0 
112 0.101211 0.0676743 0.0340521 -1.64113e-21 0 0 0 0 0 0 
113 0.101385 0.0676832 0.0340524 -1.6676e-21 0 0 0 0 0 0 
114 -0.06446 -0.134589 -0.151478 -1.58819e-21 0 0 0 0 0 0 
115 0.101211 0.0676743 0.0340521 -1.64113e-21 0 0 0 0 0 0 
116 0.101298 0.0676767 0.034052 -1.62789e-21 0 0 0 0 0 0 
117 0.0469093 0.0588054 0.0339109 -1.65436e-21 0 0 0 0 0 0 
118 0.101534 0.0678577 0.0340659 -1.62789e-21 0 0 0 0 0 0 
119 0.101211 0.0676743 0.0340521 -1.64113e-21 0 0 0 0 0 0 
120 0.101225 0.0676747 0.034052 -1.58819e-21 0 0 0 0 0 0 
121 0.101212 0.0676744 0.0340521 -1.72054e-21 0 0 0 0 0 0 
122 -0.127613 -0.0641094 0.00735674 -1.65436e-21 0 0 0 0 0 0 
123 0.101558 0.067729 0.0340572 -1.73377e-21 0 0 0 0 0 0 
124 0.101211 0.0676743 0.0340521 -1.65436e-21 0 0 0 0 0 0 
125 -0.129052 -0.166279 -0.0690869 -1.68083e-21 0 0 0 0 0 0 
126 0.0991714 0.06801 0.0341069 -1.72054e-21 0 0 0 0 0 0 
127 0.101211 0.0676744 0.0340521 -1.53525e-21 0 0 0 0 0 0 
128 0.101251 0.0676759 0.0340521 -1.69407e-21 0 0 0 0 0 0 
129 0.101215 0.0676745 0.0340521 -1.69407e-21 0 0 0 0 0 0 
130 0.0171752 0.0509706 0.0334726 -1.72054e-21 0 0 0 0 0 0 
131 0.101211 0.0676743 0.0340521 -1.73377e-21 0 0 0 0 0 0 
132 0.101211 0.0676744 0.0340521 -1.65436e-21 0 0 0 0 0 0 
133 -0.0910985 -0.00634799 0.0241426 -1.56172e-21 0 0 0 0 0 0 
134 0.101211 0.0676744 0.0340521 -1.74701e-21 0 0 0 0 0 0 
135 0.0934615 0.0679911 0.0342274 -1.69407e-21 0 0 0 0 0 0 
136 -0.112344 -0.178226 -0.205417 -1.72054e-21 0 0 0 0 0 0 
137 0.101211 0.0676743 0.0340521 -1.6676e-21 0 0 0 0 0 0 
138 0.0633111 0.064107 0.0344491 -1.58819e-21 0 0 0 0 0 0 
139 0.101412 0.0677135 0.0340592 -1.6676e-21 0 0 0 0 0 0 
140 0.101271 0.067676 0.0340523 -1.6676e-21 0 0 0 0 0 0 
141 0.101213 0.067674 0.0340521 -1.64113e-21 0 0 0 0 0 0 
142 -0.148572 -0.0589415 0.0122739 -1.68083e-21 0 0 0 0 0 0 
143 0.101211 0.0676743 0.0340521 -1.65436e-21 0 0 0 0 0 0 
144 -0.178603 -0.186677 -0.0750064 -1.68083e-21 0 0 0 0 0 0 
145 0.096424 0.067972 0.0341365 -1.53525e-21 0 0 0 0 0 0 
146 0.101395 0.0676899 0.0340533 -1.76024e-21 0 0 0 0 0 0 
147 0.101211 0.0676743 0.0340521 -1.65436e-21 0 0 0 0 0 0 
148 0.10121 0.0676743 0.0340521 -1.65436e-21 0 0 0 0 0 0 
149 0.101234 0.0676747 0.0340521 -1.50878e-21 0 0 0 0 0 0 
150 0.101211 0.0676744 0.0340521 -1.62789e-21 0 0 0 0 0 0 
151 0.100823 0.067801 0.0340782 -1.81318e-21 0 0 0 0 0 0 
152 0.0448284 0.0621039 0.0349254 -1.6676e-21 0 0 0 0 0 0 
153 0.101209 0.0676744 0.0340521 -1.65436e-21 0 0 0 0 0 0 
154 0.0811047 0.0669609 0.0343964 -1.85288e-21 0 0 0 0 0 0 
155 -0.12681 -0.00397038 0.0312289 -1.6676e-21 0 0 0 0 0 0 
156 0.101211 0.0676743 0.0340521 -1.78671e-21 0 0 0 0 0 0 
157 0.101211 0.0676744 0.0340521 -1.56172e-21 0 0 0 0 0 0 
158 -0.165544 -0.231955 -0.208753 -1.64113e-21 0 0 0 0 0 0 
159 0.101279 0.0676788 0.0340519 -1.68083e-21 0 0 0 0 0 0 
160 -0.0275648 0.0441787 0.0353761 -1.78671e-21 0 0 0 0 0 0 
161 0.101211 0.0676743 0.0340521 -1.77348e-21 0 0 0 0 0 0 
162 0.101603 0.0677199 0.0340512 -1.61466e-21 0 0 0 0 0 0 
163 0.101589 0.0679371 0.0340555 -1.58819e-21 0 0 0 0 0 0 
164 0.101216 0.0676744 0.0340521 -1.68083e-21 0 0 0 0 0 0 
165 0.101211 0.0676743 0.0340521 -1.33672e-21 0 0 0 0 0 0 
166 0.101227 0.0676749 0.034052 -1.73377e-21 0 0 0 0 0 0 
167 0.101371 0.0676868 0.0340516 -1.6676e-21 0 0 0 0 0 0 
168 -0.214879 -0.0949454 0.00891437 -1.69407e-21 0 0 0 0 0 0 
169 0.0840579 0.0675941 0.0343018 -1.53525e-21 0 0 0 0 0 0 
170 0.10186 0.0677984 0.0340508 -1.54848e-21 0 0 0 0 0 0 
171 0.101211 0.0676743 0.0340521 -1.65436e-21 0 0 0 0 0 0 
172 -0.240983 -0.24068 -0.0889149 -1.57495e-21 0 0 0 0 0 0 
173 0.101211 0.0676744 0.0340521 -1.81318e-21 0 0 0 0 0 0 
174 0.101211 0.0676743 0.0340521 -1.61466e-21 0 0 0 0 0 0 
175 0.0301334 0.0587352 0.0345764 -1.61466e-21 0 0 0 0 0 0 
176 0.101211 0.0676744 0.0340521 -1.89259e-21 0 0 0 0 0 0 
177 0.0976643 0.0682412 0.0341004 -1.65436e-21 0 0 0 0 0 0 
178 0.101211 0.0676742 0.0340521 -1.72054e-21 0 0 0 0 0 0 
179 0.10125 0.0676733 0.0340517 -1.65436e-21 0 0 0 0 0 0 
180 0.101217 0.0676731 0.034052 -1.62789e-21 0 0 0 0 0 0 
181 0.101211 0.0676743 0.0340521 -1.65436e-21 0 0 0 0 0 0 
182 0.101211 0.0676743 0.0340521 -1.42937e-21 0 0 0 0 0 0 
183 -0.195507 -0.0296765 0.0260604 -1.76024e-21 0 0 0 0 0 0 
184 -0.0409487 0.036661 0.0326528 -1.79995e-21 0 0 0 0 0 0 
185 0.101211 0.0676743 0.0340521 -1.65436e-21 0 0 0 0 0 0 
186 -0.212847 -0.286278 -0.287821 -1.77348e-21 0 0 0 0 0 0 
187 0.0984245 0.0680114 0.0340836 -1.65436e-21 0 0 0 0 0 0 
188 0.101375 0.0677092 0.0340525 -1.65436e-21 0 0 0 0 0 0 
189 0.101205 0.0676736 0.0340521 -1.50878e-21 0 0 0 0 0 0 
190 0.101204 0.0676724 0.034052 -1.77348e-21 0 0 0 0 0 0 
191 0.101242 0.0676679 0.0340514 -1.64113e-21 0 0 0 0 0 0 
192 0.100708 0.0678214 0.0340592 -1.65436e-21 0 0 0 0 0 0 
193 0.101435 0.0676986 0.0340521 -1.65436e-21 0 0 0 0 0 0 
194 0.0897028 0.067674 0.0341968 -1.64113e-21 0 0 0 0 0 0 
195 0.101211 0.0676743 0.0340521 -1.81318e-21 0 0 0 0 0 0 
196 0.101211 0.0676743 0.0340521 -1.68083e-21 0 0 0 0 0 0 
197 0.101213 0.06767 0.0340518 -1.74701e-21 0 0 0 0 0 0 
198 0.101222 0.0676752 0.0340521 -1.65436e-21 0 0 0 0 0 0 
199 -0.017782 0.0426468 0.0327702 -1.60142e-21 0 0 0 0 0 0 
200 0.101211 0.0676743 0.0340521 -1.6676e-21 0 0 0 0 0 0 
201 -0.292332 -0.129666 0.00271636 -1.58819e-21 0 0 0 0 0 0 
202 -0.31184 -0.294162 -0.110457 -1.56172e-21 0 0 0 0 0 0 
203 0.0956197 0.0677061 0.0340965 -1.64113e-21 0 0 0 0 0 0 
204 0.101212 0.0676743 0.0340521 -1.53525e-21 0 0 0 0 0 0 
205 0.0570898 0.0628654 0.0341308 -1.7073e-21 0 0 0 0 0 0 
206 0.101211 0.0676743 0.0340521 -1.6676e-21 0 0 0 0 0 0 
207 -0.168999 -0.0231421 0.0256763 -1.65436e-21 0 0 0 0 0 0 
208 0.101329 0.0676854 0.0340522 -1.57495e-21 0 0 0 0 0 0 
209 0.101872 0.0678052 0.034057 -1.65436e-21 0 0 0 0 0 0 
210 -0.277513 -0.342752 -0.301045 -1.85288e-21 0 0 0 0 0 0 
211 0.101211 0.0676743 0.0340521 -1.54848e-21 0 0 0 0 0 0 
212 0.101259 0.0676784 0.0340521 -1.48231e-21 0 0 0 0 0 0 
213 0.0992591 0.0681673 0.0341321 -1.65436e-21 0 0 0 0 0 0 
214 0.0569522 0.0647534 0.0346262 -1.4029e-21 0 0 0 0 0 0 
215 0.101525 0.067712 0.0340528 -1.6676e-21 0 0 0 0 0 0 
216 0.102112 0.0679763 0.0340683 -1.62789e-21 0 0 0 0 0 0 
217 0.0904849 0.0682746 0.0343256 -1.62789e-21 0 0 0 0 0 0 
218 0.101211 0.0676744 0.0340521 -1.7073e-21 0 0 0 0 0 0 
219 0.101211 0.0676743 0.0340521 -1.65436e-21 0 0 0 0 0 0 
220 0.101218 0.0676743 0.0340521 -1.7073e-21 0 0 0 0 0 0 
221 0.101211 0.0676743 0.0340521 -1.65436e-21 0 0 0 0 0 0 
222 -0.343167 -0.369828 -0.149621 -1.4029e-21 0 0 0 0 0 0 
223 -0.196882 -0.0223115 0.0276699 -1.6676e-21 0 0 0 0 0 0 
224 0.101212 0.0676743 0.0340521 -1.58819e-21 0 0 0 0 0 0 
225 -0.0370426 0.0437626 0.0341449 -1.89259e-21 0 0 0 0 0 0 
226 0.102027 0.0677795 0.0340492 -1.85288e-21 0 0 0 0 0 0 
227 0.101211 0.0676743 0.0340521 -1.7073e-21 0 0 0 0 0 0 
228 0.101211 0.0676743 0.0340521 -1.58819e-21 0 0 0 0 0 0 
229 -0.353277 -0.165668 -0.00168586 -1.65436e-21 0 0 0 0 0 0 
230 0.101211 0.0676743 0.0340521 -1.76024e-21 0 0 0 0 0 0 
231 -0.307457 -0.387349 -0.39267 -1.77348e-21 0 0 0 0 0 0 
232 0.0947056 0.0676842 0.0340822 -1.74701e-21 0 0 0 0 0 0 
233 0.101328 0.0676729 0.0340517 -1.57495e-21 0 0 0 0 0 0 
234 0.101207 0.0676719 0.034052 -1.72054e-21 0 0 0 0 0 0 
235 0.101415 0.0678299 0.0340423 -1.52201e-21 0 0 0 0 0 0 
236 0.101517 0.0676728 0.0340499 -1.64113e-21 0 0 0 0 0 0 
237 -0.00286887 0.0524778 0.0339237 -1.42937e-21 0 0 0 0 0 0 
238 0.101206 0.0676731 0.034052 -1.82641e-21 0 0 0 0 0 0 
239 0.101224 0.0676689 0.0340518 -1.61466e-21 0 0 0 0 0 0 
240 0.101211 0.0676743 0.0340521 -1.53525e-21 0 0 0 0 0 0 
241 0.0704174 0.0650944 0.0340813 -1.4029e-21 0 0 0 0 0 0 
242 -0.385378 -0.198405 -0.0141473 -1.65436e-21 0 0 0 0 0 0 
243 0.101211 0.0676743 0.0340521 -1.49554e-21 0 0 0 0 0 0 
244 -0.405389 -0.405697 -0.168352 -1.64113e-21 0 0 0 0 0 0 
245 0.101863 0.0678283 0.0340586 -1.52201e-21 0 0 0 0 0 0 
246 0.101211 0.0676743 0.0340521 -1.79995e-21 0 0 0 0 0 0 
247 0.101469 0.0676808 0.0340501 -1.78671e-21 0 0 0 0 0 0 
248 0.101208 0.0676738 0.0340521 -1.65436e-21 0 0 0 0 0 0 
249 -0.110567 0.0237605 0.032964 -1.68083e-21 0 0 0 0 0 0 
250 0.101211 0.0676743 0.0340521 -1.74701e-21 0 0 0 0 0 0 
251 -0.296395 -0.0626553 0.0245406 -1.6676e-21 0 0 0 0 0 0 
252 0.10121 0.0676743 0.0340521 -1.65436e-21 0 0 0 0 0 0 
253 -0.361088 -0.445913 -0.396641 -1.76024e-21 0 0 0 0 0 0 
254 0.101211 0.0676743 0.0340521 -1.77348e-21 0 0 0 0 0 0 
255 0.0664798 0.0669206 0.034591 -1.74701e-21 0 0 0 0 0 0 
256 0.102032 0.0680337 0.0340841 -1.73377e-21 0 0 0 0 0 0 
257 0.101214 0.0676688 0.0340521 -1.78671e-21 0 0 0 0 0 0 
258 0.101209 0.0676734 0.0340522 -1.52201e-21 0 0 0 0 0 0 
259 0.094574 0.0688626 0.0342386 -1.57495e-21 0 0 0 0 0 0 
260 0.10148 0.0676503 0.0340477 -1.62789e-21 0 0 0 0 0 0 
261 -0.0281122 0.0505298 0.0352969 -1.79995e-21 0 0 0 0 0 0 
262 0.101212 0.0676743 0.0340521 -1.61466e-21 0 0 0 0 0 0 
263 0.101211 0.0676744 0.0340521 -1.62789e-21 0 0 0 0 0 0 
264 -0.388012 -0.124576 0.0197826 -1.64113e-21 0 0 0 0 0 0 
265 0.102095 0.0677038 0.0340359 -1.76024e-21 0 0 0 0 0 0 
266 -0.453289 -0.368137 -0.132993 -1.69407e-21 0 0 0 0 0 0 
267 0.101228 0.0676565 0.0340518 -1.65436e-21 0 0 0 0 0 0 
268 0.101211 0.0676743 0.0340521 -1.7073e-21 0 0 0 0 0 0 
269 0.101204 0.0676733 0.0340521 -1.972e-21 0 0 0 0 0 0 
270 0.101211 0.0676744 0.0340521 -1.37643e-21 0 0 0 0 0 0 
271 -0.184554 0.000411225 0.0365313 -1.29702e-21 0 0 0 0 0 0 
272 0.095226 0.0699859 0.0343111 -1.74701e-21 0 0 0 0 0 0 
273 -0.424918 -0.463538 -0.351191 -1.53525e-21 0 0 0 0 0 0 
274 0.101211 0.0676743 0.0340521 -1.53525e-21 0 0 0 0 0 0 
275 0.103674 0.0679343 0.0340312 -1.56172e-21 0 0 0 0 0 0 
276 -0.0518641 0.0461622 0.0363336 -1.87935e-21 0 0 0 0 0 0 
277 0.105176 0.0688126 0.0340566 -1.91906e-21 0 0 0 0 0 0 
278 0.0793548 0.0719364 0.0346845 -1.41613e-21 0 0 0 0 0 0 
279 0.101118 0.0676041 0.0340467 -1.79995e-21 0 0 0 0 0 0 
280 0.101156 0.0676687 0.034052 -1.53525e-21 0 0 0 0 0 0 
281 0.101205 0.067674 0.0340521 -1.91906e-21 0 0 0 0 0 0 
282 0.101105 0.0676417 0.0340514 -1.19114e-21 0 0 0 0 0 0 
283 0.10121 0.0676743 0.0340521 -1.972e-21 0 0 0 0 0 0 
284 0.102575 0.0678284 0.0340577 -1.46907e-21 0 0 0 0 0 0 
285 -0.475405 -0.44358 -0.162437 -1.65436e-21 0 0 0 0 0 0 
286 0.101114 0.0676601 0.0340519 -1.62789e-21 0 0 0 0 0 0 
287 0.101013 0.0713874 0.0342868 -1.65436e-21 0 0 0 0 0 0 
288 -0.165625 0.013379 0.0388426 -1.87935e-21 0 0 0 0 0 0 
289 0.101192 0.0676729 0.0340521 -1.48231e-21 0 0 0 0 0 0 
290 0.101209 0.0676742 0.0340521 -1.32349e-21 0 0 0 0 0 0 
291 -0.398814 -0.142964 0.0163688 -1.76024e-21 0 0 0 0 0 0 
292 0.0907467 0.0736978 0.03544 -1.65436e-21 0 0 0 0 0 0 
293 0.101211 0.0676743 0.0340521 -1.6676e-21 0 0 0 0 0 0 
294 -0.450035 -0.525713 -0.487794 -1.65436e-21 0 0 0 0 0 0 
295 0.101373 0.0676694 0.0340516 -1.91906e-21 0 0 0 0 0 0 
296 0.0108801 0.0627945 0.0370584 -1.32349e-21 0 0 0 0 0 0 
297 0.101281 0.0676745 0.034052 -1.33672e-21 0 0 0 0 0 0 
298 0.106251 0.0690387 0.0341494 -2.05141e-21 0 0 0 0 0 0 
299 0.106872 0.0713275 0.0344567 -2.05141e-21 0 0 0 0 0 0 
300 0.101903 0.0677074 0.0340512 -1.64113e-21 0 0 0 0 0 0 
301 0.101211 0.0676744 0.0340521 -1.85288e-21 0 0 0 0 0 0 
302 0.103276 0.0679231 0.0340556 -1.60142e-21 0 0 0 0 0 0 
303 0.101209 0.0676743 0.0340521 -1.48231e-21 0 0 0 0 0 0 
304 -0.473747 -0.210681 -0.0105763 -1.33672e-21 0 0 0 0 0 0 
305 0.101211 0.0676743 0.0340521 -1.49554e-21 0 0 0 0 0 0 
306 -0.0321455 0.0407554 0.0328759 -1.4029e-21 0 0 0 0 0 0 
307 -0.572664 -0.502905 -0.193759 -1.64113e-21 0 0 0 0 0 0 
308 0.101196 0.0676681 0.0340514 -1.78671e-21 0 0 0 0 0 0 
309 0.101212 0.0676744 0.0340521 -1.95876e-21 0 0 0 0 0 0 
310 -0.25347 -0.0424063 0.0250885 -1.90582e-21 0 0 0 0 0 0 
311 0.10121 0.0676741 0.0340521 -1.82641e-21 0 0 0 0 0 0 
312 0.0943776 0.0682276 0.034127 -1.42937e-21 0 0 0 0 0 0 
313 0.0469791 0.0617629 0.0341605 -1.87935e-21 0 0 0 0 0 0 
314 0.101211 0.0676744 0.0340521 -1.68083e-21 0 0 0 0 0 0 
315 0.101271 0.0676445 0.0340465 -1.56172e-21 0 0 0 0 0 0 
316 -0.512519 -0.58373 -0.503473 -1.62789e-21 0 0 0 0 0 0 
317 0.102434 0.0678493 0.0340647 -1.41613e-21 0 0 0 0 0 0 
318 0.101124 0.0676497 0.034049 -1.82641e-21 0 0 0 0 0 0 
319 0.00110952 0.0582342 0.035179 -1.65436e-21 0 0 0 0 0 0 
320 0.101215 0.0676748 0.0340521 -1.41613e-21 0 0 0 0 0 0 
321 0.10171 0.0677163 0.0340506 -1.83965e-21 0 0 0 0 0 0 
322 0.101212 0.0676745 0.0340521 -1.65436e-21 0 0 0 0 0 0 
323 0.101191 0.0681883 0.034105 -1.65436e-21 0 0 0 0 0 0 
324 0.101225 0.0676763 0.0340522 -1.65436e-21 0 0 0 0 0 0 
325 -0.33663 -0.0547415 0.0281433 -1.46907e-21 0 0 0 0 0 0 
326 -0.583648 -0.595034 -0.236947 -1.37643e-21 0 0 0 0 0 0 
327 -0.0980315 0.0420639 0.0365955 -1.95876e-21 0 0 0 0 0 0 
328 0.101227 0.0676754 0.0340515 -1.20437e-21 0 0 0 0 0 0 
329 0.101213 0.0676746 0.0340521 -1.65436e-21 0 0 0 0 0 0 
330 0.101215 0.067675 0.0340521 -1.90582e-21 0 0 0 0 0 0 
331 -0.548022 -0.247691 -0.00919473 -1.89259e-21 0 0 0 0 0 0 
332 -0.52952 -0.624825 -0.588744 -1.85288e-21 0 0 0 0 0 0 
333 0.101211 0.0676743 0.0340521 -1.65436e-21 0 0 0 0 0 0 
334 0.0782661 0.0688132 0.034552 -1.65436e-21 0 0 0 0 0 0 
335 0.0997989 0.0689321 0.034191 -1.6676e-21 0 0 0 0 0 0 
336 0.101306 0.0676883 0.0340517 -1.73377e-21 0 0 0 0 0 0 
337 0.101888 0.0679302 0.034109 -1.65436e-21 0 0 0 0 0 0 
338 0.020861 0.0637327 0.0356448 -1.81318e-21 0 0 0 0 0 0 
339 0.101207 0.0676741 0.0340521 -1.65436e-21 0 0 0 0 0 0 
340 -0.567722 -0.241388 -0.0104341 -1.46907e-21 0 0 0 0 0 0 
341 0.101365 0.0676906 0.0340523 -1.6676e-21 0 0 0 0 0 0 
342 -0.667803 -0.576394 -0.220602 -1.50878e-21 0 0 0 0 0 0 
343 0.101209 0.0676742 0.0340521 -1.65436e-21 0 0 0 0 0 0 
344 0.101176 0.06767 0.034052 -1.53525e-21 0 0 0 0 0 0 
345 0.0997177 0.0686644 0.0341763 -1.65436e-21 0 0 0 0 0 0 
346 0.102587 0.0684275 0.0342366 -1.64113e-21 0 0 0 0 0 0 
347 -0.016925 0.051785 0.0350081 -1.56172e-21 0 0 0 0 0 0 
348 0.101082 0.0676361 0.0340488 -1.82641e-21 0 0 0 0 0 0 
349 -0.559468 -0.686768 -0.544053 -1.90582e-21 0 0 0 0 0 0 
350 0.101197 0.067673 0.0340521 -1.65436e-21 0 0 0 0 0 0 
351 -0.254013 -0.0308595 0.0284977 -1.54848e-21 0 0 0 0 0 0 
352 0.10121 0.0676742 0.0340521 -1.68083e-21 0 0 0 0 0 0 
353 0.101089 0.0675911 0.0340387 -1.972e-21 0 0 0 0 0 0 
354 0.101125 0.0676599 0.0340524 -1.74701e-21 0 0 0 0 0 0 
355 0.0739777 0.0680852 0.0347896 -1.77348e-21 0 0 0 0 0 0 
356 0.104243 0.0682888 0.0340541 -1.64113e-21 0 0 0 0 0 0 
357 -0.642904 -0.68152 -0.535475 -1.65436e-21 0 0 0 0 0 0 
358 0.101678 0.06763 0.0340239 -1.24408e-21 0 0 0 0 0 0 
359 0.101211 0.0676743 0.0340521 -1.90582e-21 0 0 0 0 0 0 
360 -0.293279 -0.0526705 0.0219743 -1.77348e-21 0 0 0 0 0 0 
361 0.101217 0.0676756 0.0340522 -1.94553e-21 0 0 0 0 0 0 
362 -0.611084 -0.374985 -0.137516 -1.68083e-21 0 0 0 0 0 0 
363 0.101213 0.0676745 0.0340521 -1.42937e-21 0 0 0 0 0 0 
364 0.0973384 0.0746651 0.0356795 -1.24408e-21 0 0 0 0 0 0 
365 0.110476 0.0706695 0.0342989 -1.6676e-21 0 0 0 0 0 0 
366 0.101251 0.0676833 0.0340534 -1.29702e-21 0 0 0 0 0 0 
367 0.102798 0.0679028 0.0340757 -2.03817e-21 0 0 0 0 0 0 
368 -0.115768 0.0437985 0.0456996 -2.05141e-21 0 0 0 0 0 0 
369 0.101237 0.0676793 0.0340525 -1.24408e-21 0 0 0 0 0 0 
370 0.0547028 0.0805858 0.0403167 -2.05141e-21 0 0 0 0 0 0 
371 0.106349 0.0685818 0.0341075 -1.65436e-21 0 0 0 0 0 0 
372 0.101601 0.0677163 0.034059 -1.64113e-21 0 0 0 0 0 0 
373 0.101342 0.0676978 0.0340556 -1.65436e-21 0 0 0 0 0 0 
374 -0.632051 -0.457383 -0.132428 -1.86612e-21 0 0 0 0 0 0 
375 0.101213 0.0676747 0.0340521 -1.4426e-21 0 0 0 0 0 0 
376 -0.337781 -0.106224 0.0238784 -1.4029e-21 0 0 0 0 0 0 
377 0.101219 0.0676758 0.0340522 -1.91906e-21 0 0 0 0 0 0 
378 0.101211 0.0676743 0.0340521 -1.85288e-21 0 0 0 0 0 0 
379 0.101212 0.0675954 0.0340432 -1.58819e-21 0 0 0 0 0 0 
380 -0.729784 -0.68056 -0.54565 -1.21761e-21 0 0 0 0 0 0 
381 0.105077 0.0679033 0.0339624 -1.81318e-21 0 0 0 0 0 0 
382 0.101179 0.0734464 0.0351533 -1.42937e-21 0 0 0 0 0 0 
383 0.101157 0.0676671 0.0340523 -1.76024e-21 0 0 0 0 0 0 
384 0.10916 0.0687319 0.033895 -1.4426e-21 0 0 0 0 0 0 
385 -0.2631 -0.0290487 0.0328206 -1.65436e-21 0 0 0 0 0 0 
386 0.101728 0.0675309 0.0340214 -1.54848e-21 0 0 0 0 0 0 
387 0.101091 0.0676399 0.0340492 -1.6676e-21 0 0 0 0 0 0 
388 0.101196 0.0676732 0.0340521 -1.85288e-21 0 0 0 0 0 0 
389 0.101209 0.0676742 0.0340521 -1.87935e-21 0 0 0 0 0 0 
390 -0.720506 -0.643474 -0.22429 -1.68083e-21 0 0 0 0 0 0 
391 0.101172 0.067671 0.0340523 -1.6676e-21 0 0 0 0 0 0 
392 0.087416 0.0736419 0.0352914 -1.65436e-21 0 0 0 0 0 0 
393 -0.522123 -0.208696 0.0109542 -1.68083e-21 0 0 0 0 0 0 
394 0.101206 0.067674 0.0340521 -1.41613e-21 0 0 0 0 0 0 
395 0.00396348 0.0674091 0.0375599 -1.65436e-21 0 0 0 0 0 0 
396 0.101452 0.0675318 0.0340153 -1.6676e-21 0 0 0 0 0 0 
397 0.10121 0.0676743 0.0340521 -1.64113e-21 0 0 0 0 0 0 
398 -0.695548 -0.766891 -0.6248 -1.87935e-21 0 0 0 0 0 0 
399 0.101146 0.0676083 0.0340434 -1.65436e-21 0 0 0 0 0 0 
400 0.106718 0.0684017 0.0340726 -1.65436e-21 0 0 0 0 0 0 
401 0.107196 0.0700717 0.0341031 -1.64113e-21 0 0 0 0 0 0 
402 0.10121 0.0676751 0.0340522 -1.64113e-21 0 0 0 0 0 0 
403 0.10118 0.0676732 0.0340525 -1.64113e-21 0 0 0 0 0 0 
404 0.102943 0.06755 0.033905 -1.64113e-21 0 0 0 0 0 0 
405 -0.451786 -0.0924104 0.0262688 -1.69407e-21 0 0 0 0 0 0 
406 -0.112451 0.0443051 0.0399165 -1.45584e-21 0 0 0 0 0 0 
407 -0.738268 -0.790474 -0.633076 -1.87935e-21 0 0 0 0 0 0 
408 0.101147 0.0676517 0.0340508 -1.65436e-21 0 0 0 0 0 0 
409 0.101211 0.0676744 0.0340521 -1.6676e-21 0 0 0 0 0 0 
410 0.101212 0.0676746 0.0340521 -1.73377e-21 0 0 0 0 0 0 
411 0.101201 0.0676754 0.0340524 -1.65436e-21 0 0 0 0 0 0 
412 -0.769875 -0.494657 -0.186028 -1.41613e-21 0 0 0 0 0 0 
413 0.100253 0.0708534 0.0342341 -1.4426e-21 0 0 0 0 0 0 
414 0.0131945 0.0651363 0.0373499 -1.82641e-21 0 0 0 0 0 0 
415 0.102416 0.0677076 0.0340355 -1.83965e-21 0 0 0 0 0 0 
416 0.101204 0.0676429 0.0340521 -1.57495e-21 0 0 0 0 0 0 
417 0.10121 0.0676745 0.0340521 -1.46907e-21 0 0 0 0 0 0 
418 -0.725111 -0.632483 -0.19769 -1.64113e-21 0 0 0 0 0 0 
419 0.101196 0.0676744 0.0340524 -1.6676e-21 0 0 0 0 0 0 
420 0.113471 0.0767022 0.03548 -1.94553e-21 0 0 0 0 0 0 
421 -0.090395 0.0445068 0.0430786 -1.45584e-21 0 0 0 0 0 0 
422 0.101204 0.0676745 0.0340522 -1.77348e-21 0 0 0 0 0 0 
423 -0.783963 -0.784466 -0.704423 -1.62789e-21 0 0 0 0 0 0 
424 0.106057 0.0684378 0.0341074 -1.48231e-21 0 0 0 0 0 0 
425 0.101211 0.0676744 0.0340521 -1.64113e-21 0 0 0 0 0 0 
426 0.101214 0.0676692 0.0340529 -1.60142e-21 0 0 0 0 0 0 
427 -0.398071 -0.141278 0.0158758 -1.56172e-21 0 0 0 0 0 0 
428 0.113255 0.0706493 0.0342269 -1.91906e-21 0 0 0 0 0 0 
429 0.0727912 0.082932 0.0395491 -2.0117e-21 0 0 0 0 0 0 
430 0.101552 0.0677007 0.0340544 -1.69407e-21 0 0 0 0 0 0 
431 0.10121 0.0676743 0.0340521 -1.62789e-21 0 0 0 0 0 0 
432 -0.840924 -0.672255 -0.241069 -1.65436e-21 0 0 0 0 0 0 
433 0.101203 0.0676739 0.0340521 -1.23084e-21 0 0 0 0 0 0 
434 0.10253 0.0678112 0.0340623 -2.07788e-21 0 0 0 0 0 0 
435 -0.542477 -0.201988 -0.00287858 -2.10435e-21 0 0 0 0 0 0 
436 0.101202 0.0676672 0.0340514 -1.78671e-21 0 0 0 0 0 0 
437 0.0477983 0.0722644 0.0371848 -1.49554e-21 0 0 0 0 0 0 
438 0.101184 0.0676711 0.0340519 -1.81318e-21 0 0 0 0 0 0 
439 -0.209777 -0.00888943 0.0296605 -1.46907e-21 0 0 0 0 0 0 
440 0.11126 0.070761 0.0343048 -9.52912e-22 0 0 0 0 0 0 
441 0.101669 0.067685 0.0340459 -8.33798e-22 0 0 0 0 0 0 
442 -0.836779 -0.881253 -0.662483 -1.42937e-21 0 0 0 0 0 0 
443 0.101211 0.0676744 0.0340521 -1.87935e-21 0 0 0 0 0 0 
444 0.101128 0.0676467 0.0340485 -1.6676e-21 0 0 0 0 0 0 
445 0.103982 0.0760255 0.0356462 -1.65436e-21 0 0 0 0 0 0 
446 0.101184 0.0676711 0.0340519 -1.53525e-21 0 0 0 0 0 0 
447 -0.392525 -0.0876374 0.00878957 -1.19114e-21 0 0 0 0 0 0 
448 0.103018 0.0678592 0.0340499 -1.86612e-21 0 0 0 0 0 0 
449 0.107741 0.0689069 0.034151 -1.86612e-21 0 0 0 0 0 0 
450 -0.857286 -0.495364 -0.165753 -1.98523e-21 0 0 0 0 0 0 
451 0.101206 0.067674 0.0340521 -1.28378e-21 0 0 0 0 0 0 
452 0.101097 0.067649 0.03405 -1.64113e-21 0 0 0 0 0 0 
453 0.101129 0.0676614 0.0340514 -1.56172e-21 0 0 0 0 0 0 
454 0.094449 0.0817289 0.0378605 -1.50878e-21 0 0 0 0 0 0 
455 -0.0479304 0.0565343 0.038141 -1.79995e-21 0 0 0 0 0 0 
456 -0.826449 -0.747819 -0.244333 -1.21761e-21 0 0 0 0 0 0 
457 0.101668 0.0676887 0.0340475 -1.64113e-21 0 0 0 0 0 0 
458 0.101206 0.0676742 0.0340521 -1.65436e-21 0 0 0 0 0 0 
459 0.114053 0.0712066 0.0344351 -1.94553e-21 0 0 0 0 0 0 
460 0.121044 0.0766359 0.0353016 -1.79995e-21 0 0 0 0 0 0 
461 0.10121 0.0676744 0.0340521 -1.65436e-21 0 0 0 0 0 0 
462 0.101195 0.0676734 0.0340521 -1.65436e-21 0 0 0 0 0 0 
463 -0.840758 -0.91809 -0.813729 -2.09111e-21 0 0 0 0 0 0 
464 -0.638007 -0.234905 0.00844895 -1.89259e-21 0 0 0 0 0 0 
465 0.101149 0.067667 0.0340519 -2.06464e-21 0 0 0 0 0 0 
466 0.102546 0.0677714 0.0340489 -1.65436e-21 0 0 0 0 0 0 
467 -0.235378 0.00818604 0.0440945 -1.4426e-21 0 0 0 0 0 0 
468 0.107311 0.0687359 0.034096 -1.01909e-21 0 0 0 0 0 0 
469 0.101206 0.0676741 0.0340521 -1.64113e-21 0 0 0 0 0 0 
470 -0.904298 -0.585291 -0.246263 -1.00585e-21 0 0 0 0 0 0 
471 0.110278 0.0756889 0.0348403 -1.78671e-21 0 0 0 0 0 0 
472 0.101369 0.067648 0.0340489 -1.65436e-21 0 0 0 0 0 0 
473 0.101081 0.0676518 0.0340513 -1.65436e-21 0 0 0 0 0 0 
474 0.11176 0.0707012 0.0341313 -2.09111e-21 0 0 0 0 0 0 
475 -0.00278702 0.0623038 0.0379211 -1.72054e-21 0 0 0 0 0 0 
476 0.101205 0.067674 0.0340521 -1.65436e-21 0 0 0 0 0 0 
477 0.101966 0.0676911 0.0340472 -2.03817e-21 0 0 0 0 0 0 
478 -0.850284 -0.660504 -0.190418 -2.26317e-21 0 0 0 0 0 0 
479 0.111361 0.0702122 0.0342204 -1.65436e-21 0 0 0 0 0 0 
480 0.101145 0.0676614 0.0340513 -1.46907e-21 0 0 0 0 0 0 
481 -0.0835562 0.0316641 0.0363589 -1.65436e-21 0 0 0 0 0 0 
482 0.104326 0.0679979 0.0340521 -1.74701e-21 0 0 0 0 0 0 
483 0.101208 0.0676743 0.0340521 -1.64113e-21 0 0 0 0 0 0 
484 0.101178 0.0676703 0.0340519 -1.6676e-21 0 0 0 0 0 0 
485 -0.382617 -0.122301 0.0210239 -1.64113e-21 0 0 0 0 0 0 
486 -0.896939 -0.935741 -0.729436 -1.20437e-21 0 0 0 0 0 0 
487 0.101288 0.0676566 0.0340496 -1.27055e-21 0 0 0 0 0 0 
488 0.0823956 0.0782219 0.0370398 -1.64113e-21 0 0 0 0 0 0 
489 0.119391 0.0761752 0.0350414 -1.65436e-21 0 0 0 0 0 0 
490 0.103611 0.0678793 0.034051 -1.28378e-21 0 0 0 0 0 0 
491 0.101621 0.0676649 0.0340471 -1.99847e-21 0 0 0 0 0 0 
492 -0.415445 -0.0908376 0.0236766 -1.65436e-21 0 0 0 0 0 0 
493 0.101178 0.067671 0.0340521 -1.64113e-21 0 0 0 0 0 0 
494 0.101196 0.0676737 0.0340522 -1.64113e-21 0 0 0 0 0 0 
495 -0.876258 -0.556098 -0.185979 -2.18376e-21 0 0 0 0 0 0 
496 -0.0689894 0.0460103 0.0382522 -1.6676e-21 0 0 0 0 0 0 
497 0.101247 0.0676618 0.0340505 -1.81318e-21 0 0 0 0 0 0 
498 0.109597 0.0691523 0.0341634 -1.87935e-21 0 0 0 0 0 0 
499 0.120115 0.0734119 0.0345619 -1.48231e-21 0 0 0 0 0 0 
500 -0.989398 -0.933252 -0.616604 -1.4426e-21 0 0 0 0 0 0 
501 0.101205 0.0676742 0.0340521 -1.90582e-21 0 0 0 0 0 0 
502 -0.0182077 0.0587835 0.039192 -1.972e-21 0 0 0 0 0 0 
503 0.101203 0.0676479 0.0340493 -1.52201e-21 0 0 0 0 0 0 
504 0.109445 0.0797396 0.0364113 -1.74701e-21 0 0 0 0 0 0 
505 0.10415 0.0679201 0.034044 -1.21761e-21 0 0 0 0 0 0 
506 0.101559 0.0676255 0.0340427 -1.65436e-21 0 0 0 0 0 0 