VARIABLES = "Cell" "Mode 0" "Mode 1" "Mode 2" "Mode 3" "Mode 4" "Mode 5" "Mode 6" "Mode 7" "Mode 8" "Mode 9" 
ZONE T = Iteration5
0 0.171404 0.139485 0.106201 0.0690371 0.0338885 0.0180494 -1.64113e-21 0 0 0 
1 0.170929 0.138292 0.103675 0.0694013 0.0440165 0.0260872 -1.64113e-21 0 0 0 
2 0.185299 0.161648 0.132929 0.10097 0.0676556 0.034052 -1.6676e-21 0 0 0 
3 0.16684 0.149001 0.127884 0.0999427 0.0675699 0.0340356 -1.65436e-21 0 0 0 
4 0.199916 0.167289 0.134382 0.101196 0.0676728 0.0340521 -1.64113e-21 0 0 0 
5 0.430697 0.261549 0.164254 0.107301 0.0683484 0.0341161 -1.65436e-21 0 0 0 
6 0.159268 0.134258 0.11128 0.090843 0.0655165 0.0340077 -1.65436e-21 0 0 0 
7 0.201085 0.167675 0.134471 0.101211 0.0676743 0.0340521 -1.62789e-21 0 0 0 
8 0.199125 0.16724 0.134404 0.101201 0.0676731 0.0340521 -1.65436e-21 0 0 0 
9 0.201003 0.167656 0.134466 0.10121 0.0676742 0.0340521 -1.6676e-21 0 0 0 
10 0.175593 0.156697 0.131368 0.100707 0.0676258 0.0340481 -1.6676e-21 0 0 0 
11 0.201197 0.167691 0.134473 0.101211 0.0676743 0.0340521 -1.65436e-21 0 0 0 
12 0.188763 0.164146 0.133901 0.101181 0.0676764 0.0340521 -1.6676e-21 0 0 0 
13 0.201199 0.167691 0.134473 0.101211 0.0676743 0.0340521 -1.6676e-21 0 0 0 
14 0.194351 0.166094 0.134255 0.101193 0.0676722 0.034052 -1.65436e-21 0 0 0 
15 0.201196 0.167691 0.134473 0.101211 0.0676743 0.0340521 -1.64113e-21 0 0 0 
16 0.201199 0.167691 0.134473 0.101211 0.0676743 0.0340521 -1.64113e-21 0 0 0 
17 0.182242 0.14376 0.104462 0.0690752 0.0471601 0.0288617 -1.65436e-21 0 0 0 
18 0.17351 0.139794 0.107031 0.0740106 0.037951 -0.000748019 -1.65436e-21 0 0 0 
19 0.201009 0.167668 0.134471 0.101211 0.0676743 0.0340521 -1.6676e-21 0 0 0 
20 0.15064 0.134437 0.119738 0.0975799 0.0673571 0.0340268 -1.64113e-21 0 0 0 
21 0.129704 0.115825 0.0926528 0.0738662 0.0575468 0.0327639 -1.65436e-21 0 0 0 
22 0.199454 0.167472 0.134473 0.101214 0.0676743 0.0340521 -1.68083e-21 0 0 0 
23 0.201153 0.167686 0.134473 0.101211 0.0676743 0.0340521 -1.65436e-21 0 0 0 
24 0.200472 0.167608 0.13447 0.101211 0.0676742 0.0340521 -1.6676e-21 0 0 0 
25 0.201198 0.167691 0.134473 0.101211 0.0676743 0.0340521 -1.6676e-21 0 0 0 
26 0.14104 0.120745 0.107598 0.0919837 0.066299 0.0340601 -1.6676e-21 0 0 0 
27 0.201198 0.167691 0.134473 0.101211 0.0676743 0.0340521 -1.68083e-21 0 0 0 
28 0.201185 0.16769 0.134473 0.101211 0.0676743 0.0340521 -1.64113e-21 0 0 0 
29 0.201199 0.167691 0.134473 0.101211 0.0676743 0.0340521 -1.65436e-21 0 0 0 
30 0.164892 0.153388 0.131095 0.100886 0.067682 0.0340493 -1.65436e-21 0 0 0 
31 0.169435 0.138574 0.105749 0.0686803 0.033609 0.0174805 -1.6676e-21 0 0 0 
32 0.201183 0.167706 0.134476 0.101211 0.0676743 0.0340521 -1.65436e-21 0 0 0 
33 0.201199 0.167691 0.134473 0.101211 0.0676743 0.0340521 -1.64113e-21 0 0 0 
34 0.178265 0.160594 0.133334 0.101212 0.067692 0.0340518 -1.65436e-21 0 0 0 
35 0.142812 0.137968 0.124722 0.0995469 0.0675983 0.0340488 -1.65436e-21 0 0 0 
36 0.194468 0.166598 0.134476 0.101242 0.0676772 0.0340519 -1.65436e-21 0 0 0 
37 0.201165 0.167691 0.134474 0.101211 0.0676743 0.0340521 -1.62789e-21 0 0 0 
38 0.198049 0.167397 0.134534 0.101231 0.0676756 0.034052 -1.65436e-21 0 0 0 
39 0.200814 0.167721 0.134493 0.101214 0.0676744 0.0340521 -1.64113e-21 0 0 0 
40 0.201199 0.167692 0.134473 0.101211 0.0676743 0.0340521 -1.64113e-21 0 0 0 
41 0.113589 0.0857294 0.0632024 0.057664 0.053662 0.0327246 -1.61466e-21 0 0 0 
42 0.2012 0.167692 0.134473 0.101211 0.0676743 0.0340521 -1.6676e-21 0 0 0 
43 0.110787 0.0892785 0.0809667 0.0780756 0.0628889 0.0338681 -1.64113e-21 0 0 0 
44 0.201184 0.167738 0.134484 0.101212 0.0676743 0.0340521 -1.65436e-21 0 0 0 
45 0.134389 0.103596 0.0672554 0.0266482 0.00190412 0.00776087 -1.6676e-21 0 0 0 
46 0.201199 0.167691 0.134473 0.101211 0.0676743 0.0340521 -1.68083e-21 0 0 0 
47 0.199726 0.167637 0.13452 0.101221 0.0676749 0.0340521 -1.72054e-21 0 0 0 
48 0.17007 0.157973 0.132825 0.101151 0.0676879 0.034051 -1.6676e-21 0 0 0 
49 0.201199 0.167691 0.134473 0.101211 0.0676743 0.0340521 -1.68083e-21 0 0 0 
50 0.127289 0.0860405 0.0448105 0.024245 0.0298625 0.0277417 -1.64113e-21 0 0 0 
51 0.185807 0.164235 0.134224 0.101279 0.0676866 0.0340516 -1.65436e-21 0 0 0 
52 0.107187 0.1123 0.113284 0.0966633 0.0673455 0.0340516 -1.64113e-21 0 0 0 
53 0.201205 0.167696 0.134474 0.101211 0.0676743 0.0340521 -1.7073e-21 0 0 0 
54 0.20121 0.167694 0.134473 0.101211 0.0676743 0.0340521 -1.65436e-21 0 0 0 
55 0.0835494 0.0733583 0.0835286 0.0848046 0.0652737 0.0340203 -1.6676e-21 0 0 0 
56 0.111846 0.0786396 0.0473009 0.0135791 -0.0235679 -0.0424368 -1.62789e-21 0 0 0 
57 0.201199 0.167691 0.134473 0.101211 0.0676743 0.0340521 -1.64113e-21 0 0 0 
58 0.201217 0.167722 0.134479 0.101211 0.0676743 0.0340521 -1.68083e-21 0 0 0 
59 0.19819 0.167335 0.134502 0.101226 0.0676757 0.034052 -1.58819e-21 0 0 0 
60 0.100091 0.109943 0.112826 0.0965031 0.0671886 0.034038 -1.65436e-21 0 0 0 
61 0.201229 0.167704 0.134475 0.101211 0.0676743 0.0340521 -1.65436e-21 0 0 0 
62 0.133967 0.139591 0.127199 0.100263 0.0676514 0.0340528 -1.62789e-21 0 0 0 
63 0.192014 0.166145 0.13445 0.101252 0.0676793 0.0340519 -1.65436e-21 0 0 0 
64 0.2012 0.167691 0.134473 0.101211 0.0676743 0.0340521 -1.57495e-21 0 0 0 
65 0.201212 0.167693 0.134473 0.101211 0.0676743 0.0340521 -1.64113e-21 0 0 0 
66 0.0669045 0.0359011 0.0480617 0.0685724 0.0622272 0.0339638 -1.6676e-21 0 0 0 
67 0.201076 0.167725 0.134486 0.101213 0.0676744 0.0340521 -1.68083e-21 0 0 0 
68 0.104645 0.0564956 -0.00551542 -0.0146084 0.0216585 0.0286367 -1.68083e-21 0 0 0 
69 0.199864 0.167603 0.134498 0.101217 0.0676747 0.0340521 -1.68083e-21 0 0 0 
70 0.201199 0.167691 0.134473 0.101211 0.0676743 0.0340521 -1.7073e-21 0 0 0 
71 0.089815 0.0604957 0.0362421 -0.0106276 -0.0657194 -0.0342441 -1.68083e-21 0 0 0 
72 0.0623785 0.0622119 0.0807439 0.0852963 0.0656122 0.0340269 -1.65436e-21 0 0 0 
73 0.201222 0.167696 0.134473 0.101211 0.0676743 0.0340521 -1.65436e-21 0 0 0 
74 0.201199 0.167691 0.134473 0.101211 0.0676743 0.0340521 -1.72054e-21 0 0 0 
75 0.201203 0.167691 0.134473 0.101211 0.0676743 0.0340521 -1.61466e-21 0 0 0 
76 0.0808437 0.0580822 0.00392303 -0.0522388 -0.0304325 0.0126441 -1.68083e-21 0 0 0 
77 0.0715734 0.0137213 -0.00218136 0.0277079 0.0489024 0.0328814 -1.6676e-21 0 0 0 
78 0.124419 0.139848 0.128306 0.100519 0.0676523 0.034051 -1.65436e-21 0 0 0 
79 0.201199 0.167691 0.134473 0.101211 0.0676743 0.0340521 -1.68083e-21 0 0 0 
80 0.19894 0.167494 0.134493 0.101217 0.0676745 0.0340521 -1.6676e-21 0 0 0 
81 0.188382 0.165588 0.134395 0.101242 0.0676785 0.0340521 -1.58819e-21 0 0 0 
82 0.201233 0.16771 0.134474 0.101211 0.0676744 0.0340521 -1.60142e-21 0 0 0 
83 0.078211 0.0421275 0.0118499 -0.014571 -0.0617546 -0.118651 -1.68083e-21 0 0 0 
84 0.0325764 0.062096 0.0914881 0.0909933 0.0665827 0.0340571 -1.62789e-21 0 0 0 
85 0.20125 0.1677 0.134472 0.101211 0.0676743 0.0340521 -1.69407e-21 0 0 0 
86 0.0777596 0.113442 0.119715 0.0990646 0.0675716 0.0340517 -1.61466e-21 0 0 0 
87 0.14912 0.15355 0.13261 0.101254 0.0677071 0.0340532 -1.58819e-21 0 0 0 
88 0.196702 0.167299 0.134532 0.101228 0.0676749 0.034052 -1.7073e-21 0 0 0 
89 0.201208 0.16769 0.134472 0.101211 0.0676743 0.0340521 -1.78671e-21 0 0 0 
90 0.176852 0.162986 0.134216 0.101283 0.067685 0.0340523 -1.65436e-21 0 0 0 
91 0.201198 0.167691 0.134473 0.101211 0.0676743 0.0340521 -1.56172e-21 0 0 0 
92 0.200866 0.167726 0.134477 0.101209 0.0676745 0.0340522 -1.58819e-21 0 0 0 
93 0.0131459 -0.0401983 -0.0136889 0.0409023 0.0558184 0.0334456 -1.56172e-21 0 0 0 
94 0.0542838 0.0305827 -0.0250465 -0.0861345 -0.0574106 0.00451759 -1.72054e-21 0 0 0 
95 0.201187 0.167709 0.13447 0.10121 0.0676744 0.0340521 -1.65436e-21 0 0 0 
96 -0.00688477 0.00880702 0.0578041 0.0802354 0.0650375 0.0339794 -1.73377e-21 0 0 0 
97 0.201198 0.167691 0.134473 0.101211 0.0676743 0.0340521 -1.62789e-21 0 0 0 
98 0.0467193 0.0226843 -0.00624937 -0.0695706 -0.114961 -0.0503885 -1.58819e-21 0 0 0 
99 0.201236 0.167695 0.134473 0.101211 0.0676743 0.0340521 -1.58819e-21 0 0 0 
100 0.0656198 0.111675 0.121643 0.100433 0.0679086 0.0340757 -1.74701e-21 0 0 0 
101 0.201197 0.167691 0.134473 0.101211 0.0676743 0.0340521 -1.53525e-21 0 0 0 
102 0.201225 0.167691 0.134472 0.101211 0.0676743 0.0340521 -1.69407e-21 0 0 0 
103 0.113582 0.138965 0.129798 0.101316 0.0678059 0.0340598 -1.7073e-21 0 0 0 
104 0.199009 0.168106 0.1347 0.101243 0.0676745 0.034052 -1.56172e-21 0 0 0 
105 0.200902 0.167985 0.134545 0.101214 0.0676743 0.0340523 -1.76024e-21 0 0 0 
106 0.0279074 -0.0406821 -0.0608285 -0.00520666 0.0401171 0.0320975 -1.69407e-21 0 0 0 
107 0.0393449 -0.0143969 -0.0878606 -0.0806511 -0.00597569 0.0243997 -1.64113e-21 0 0 0 
108 0.201278 0.167707 0.134472 0.101211 0.0676744 0.0340521 -1.60142e-21 0 0 0 
109 -0.024894 0.00490005 0.0629319 0.0844162 0.0664695 0.0341735 -1.62789e-21 0 0 0 
110 0.00668443 0.0613319 0.100353 0.0964141 0.067894 0.0340993 -1.54848e-21 0 0 0 
111 0.2012 0.16769 0.134473 0.101211 0.0676743 0.0340521 -1.6676e-21 0 0 0 
112 0.201199 0.167691 0.134473 0.101211 0.0676743 0.0340521 -1.64113e-21 0 0 0 
113 0.181919 0.165641 0.134973 0.101385 0.0676832 0.0340524 -1.6676e-21 0 0 0 
114 0.0231167 -0.00794438 -0.028318 -0.06446 -0.134589 -0.151478 -1.58819e-21 0 0 0 
115 0.201221 0.167691 0.134473 0.101211 0.0676743 0.0340521 -1.64113e-21 0 0 0 
116 0.193676 0.167777 0.134919 0.101298 0.0676767 0.034052 -1.62789e-21 0 0 0 
117 -0.0266505 -0.0567341 -0.0112123 0.0469093 0.0588054 0.0339109 -1.65436e-21 0 0 0 
118 0.100795 0.13635 0.129916 0.101534 0.0678577 0.0340659 -1.62789e-21 0 0 0 
119 0.2012 0.167691 0.134473 0.101211 0.0676743 0.0340521 -1.64113e-21 0 0 0 
120 0.200709 0.168068 0.134593 0.101225 0.0676747 0.034052 -1.58819e-21 0 0 0 
121 0.201307 0.167701 0.134471 0.101212 0.0676744 0.0340521 -1.72054e-21 0 0 0 
122 0.006086 -0.0284628 -0.0905572 -0.127613 -0.0641094 0.00735674 -1.65436e-21 0 0 0 
123 0.142293 0.153751 0.133546 0.101558 0.067729 0.0340572 -1.73377e-21 0 0 0 
124 0.201199 0.167691 0.134473 0.101211 0.0676743 0.0340521 -1.65436e-21 0 0 0 
125 0.000434962 -0.0214221 -0.0576546 -0.129052 -0.166279 -0.0690869 -1.68083e-21 0 0 0 
126 0.0161796 0.0838051 0.112427 0.0991714 0.06801 0.0341069 -1.72054e-21 0 0 0 
127 0.201256 0.167698 0.134474 0.101211 0.0676744 0.0340521 -1.53525e-21 0 0 0 
128 0.196321 0.167879 0.134736 0.101251 0.0676759 0.0340521 -1.69407e-21 0 0 0 
129 0.200966 0.167806 0.134503 0.101215 0.0676745 0.0340521 -1.69407e-21 0 0 0 
130 -0.046421 -0.0893754 -0.0579461 0.0171752 0.0509706 0.0334726 -1.72054e-21 0 0 0 
131 0.201202 0.16769 0.134473 0.101211 0.0676743 0.0340521 -1.73377e-21 0 0 0 
132 0.201325 0.167709 0.134475 0.101211 0.0676744 0.0340521 -1.65436e-21 0 0 0 
133 -0.0185443 -0.0815887 -0.130262 -0.0910985 -0.00634799 0.0241426 -1.56172e-21 0 0 0 
134 0.201199 0.167685 0.134472 0.101211 0.0676744 0.0340521 -1.74701e-21 0 0 0 
135 -0.0434247 0.0291425 0.0863561 0.0934615 0.0679911 0.0342274 -1.69407e-21 0 0 0 
136 -0.0215429 -0.0527114 -0.0765174 -0.112344 -0.178226 -0.205417 -1.72054e-21 0 0 0 
137 0.201197 0.167691 0.134473 0.101211 0.0676743 0.0340521 -1.6676e-21 0 0 0 
138 -0.0988729 -0.0772122 0.00481795 0.0633111 0.064107 0.0344491 -1.58819e-21 0 0 0 
139 0.11965 0.145107 0.131784 0.101412 0.0677135 0.0340592 -1.6676e-21 0 0 0 
140 0.186842 0.166233 0.134699 0.101271 0.067676 0.0340523 -1.6676e-21 0 0 0 
141 0.199551 0.167691 0.134509 0.101213 0.067674 0.0340521 -1.64113e-21 0 0 0 
142 -0.035016 -0.0818319 -0.14134 -0.148572 -0.0589415 0.0122739 -1.68083e-21 0 0 0 
143 0.201185 0.167689 0.134473 0.101211 0.0676743 0.0340521 -1.65436e-21 0 0 0 
144 -0.0367374 -0.0637197 -0.11164 -0.178603 -0.186677 -0.0750064 -1.68083e-21 0 0 0 
145 -0.0343794 0.04875 0.0979559 0.096424 0.067972 0.0341365 -1.53525e-21 0 0 0 
146 0.163639 0.160796 0.134403 0.101395 0.0676899 0.0340533 -1.76024e-21 0 0 0 
147 0.201191 0.16769 0.134473 0.101211 0.0676743 0.0340521 -1.65436e-21 0 0 0 
148 0.20131 0.167711 0.13447 0.10121 0.0676743 0.0340521 -1.65436e-21 0 0 0 
149 0.195424 0.16742 0.134612 0.101234 0.0676747 0.0340521 -1.50878e-21 0 0 0 
150 0.201135 0.167672 0.134471 0.101211 0.0676744 0.0340521 -1.62789e-21 0 0 0 
151 0.0436128 0.107858 0.122343 0.100823 0.067801 0.0340782 -1.81318e-21 0 0 0 
152 -0.11259 -0.125569 -0.0419689 0.0448284 0.0621039 0.0349254 -1.6676e-21 0 0 0 
153 0.200974 0.167692 0.134464 0.101209 0.0676744 0.0340521 -1.65436e-21 0 0 0 
154 -0.107262 -0.0385902 0.0438047 0.0811047 0.0669609 0.0343964 -1.85288e-21 0 0 0 
155 -0.0624619 -0.138185 -0.192355 -0.12681 -0.00397038 0.0312289 -1.6676e-21 0 0 0 
156 0.201167 0.167685 0.134473 0.101211 0.0676743 0.0340521 -1.78671e-21 0 0 0 
157 0.20114 0.167665 0.134469 0.101211 0.0676744 0.0340521 -1.56172e-21 0 0 0 
158 -0.0664701 -0.0900676 -0.113996 -0.165544 -0.231955 -0.208753 -1.64113e-21 0 0 0 
159 0.195357 0.167701 0.134783 0.101279 0.0676788 0.0340519 -1.68083e-21 0 0 0 
160 -0.104988 -0.16471 -0.136022 -0.0275648 0.0441787 0.0353761 -1.78671e-21 0 0 0 
161 0.201197 0.167691 0.134473 0.101211 0.0676743 0.0340521 -1.77348e-21 0 0 0 
162 0.16397 0.161799 0.134994 0.101603 0.0677199 0.0340512 -1.61466e-21 0 0 0 
163 0.0394683 0.111307 0.12497 0.101589 0.0679371 0.0340555 -1.58819e-21 0 0 0 
164 0.2013 0.167905 0.134523 0.101216 0.0676744 0.0340521 -1.68083e-21 0 0 0 
165 0.201213 0.167694 0.134474 0.101211 0.0676743 0.0340521 -1.33672e-21 0 0 0 
166 0.200185 0.167979 0.134592 0.101227 0.0676749 0.034052 -1.73377e-21 0 0 0 
167 0.187042 0.166753 0.135014 0.101371 0.0676868 0.0340516 -1.6676e-21 0 0 0 
168 -0.0836586 -0.138198 -0.209876 -0.214879 -0.0949454 0.00891437 -1.69407e-21 0 0 0 
169 -0.165327 -0.0663977 0.0434514 0.0840579 0.0675941 0.0343018 -1.53525e-21 0 0 0 
170 0.116495 0.14642 0.132956 0.10186 0.0677984 0.0340508 -1.54848e-21 0 0 0 
171 0.201203 0.167692 0.134473 0.101211 0.0676743 0.0340521 -1.65436e-21 0 0 0 
172 -0.0824561 -0.105804 -0.162161 -0.240983 -0.24068 -0.0889149 -1.57495e-21 0 0 0 
173 0.201296 0.16771 0.134475 0.101211 0.0676744 0.0340521 -1.81318e-21 0 0 0 
174 0.2012 0.167691 0.134473 0.101211 0.0676743 0.0340521 -1.61466e-21 0 0 0 
175 -0.195352 -0.188022 -0.0757469 0.0301334 0.0587352 0.0345764 -1.61466e-21 0 0 0 
176 0.201256 0.167699 0.134474 0.101211 0.0676744 0.0340521 -1.89259e-21 0 0 0 
177 -0.0778532 0.0338119 0.0974485 0.0976643 0.0682412 0.0341004 -1.65436e-21 0 0 0 
178 0.201439 0.167783 0.134486 0.101211 0.0676742 0.0340521 -1.72054e-21 0 0 0 
179 0.195098 0.167878 0.134761 0.10125 0.0676733 0.0340517 -1.65436e-21 0 0 0 
180 0.200193 0.168065 0.134584 0.101217 0.0676731 0.034052 -1.62789e-21 0 0 0 
181 0.201212 0.167692 0.134473 0.101211 0.0676743 0.0340521 -1.65436e-21 0 0 0 
182 0.20125 0.167697 0.134473 0.101211 0.0676743 0.0340521 -1.42937e-21 0 0 0 
183 -0.11369 -0.228183 -0.300989 -0.195507 -0.0296765 0.0260604 -1.76024e-21 0 0 0 
184 -0.185531 -0.241113 -0.175784 -0.0409487 0.036661 0.0326528 -1.79995e-21 0 0 0 
185 0.201199 0.167691 0.134473 0.101211 0.0676743 0.0340521 -1.65436e-21 0 0 0 
186 -0.120354 -0.147608 -0.168799 -0.212847 -0.286278 -0.287821 -1.77348e-21 0 0 0 
187 -0.0886097 0.0437483 0.103813 0.0984245 0.0680114 0.0340836 -1.65436e-21 0 0 0 
188 0.103496 0.143689 0.131956 0.101375 0.0677092 0.0340525 -1.65436e-21 0 0 0 
189 0.201284 0.167748 0.134464 0.101205 0.0676736 0.0340521 -1.50878e-21 0 0 0 
190 0.200522 0.16789 0.134506 0.101204 0.0676724 0.034052 -1.77348e-21 0 0 0 
191 0.187649 0.166861 0.13473 0.101242 0.0676679 0.0340514 -1.64113e-21 0 0 0 
192 0.0106445 0.103574 0.122605 0.100708 0.0678214 0.0340592 -1.65436e-21 0 0 0 
193 0.154756 0.159824 0.134431 0.101435 0.0676986 0.0340521 -1.65436e-21 0 0 0 
194 -0.175746 -0.0403983 0.0642232 0.0897028 0.067674 0.0341968 -1.64113e-21 0 0 0 
195 0.201335 0.167711 0.134473 0.101211 0.0676743 0.0340521 -1.81318e-21 0 0 0 
196 0.201208 0.16769 0.134473 0.101211 0.0676743 0.0340521 -1.68083e-21 0 0 0 
197 0.195962 0.167691 0.134603 0.101213 0.06767 0.0340518 -1.74701e-21 0 0 0 
198 0.201381 0.167937 0.134546 0.101222 0.0676752 0.0340521 -1.65436e-21 0 0 0 
199 -0.230733 -0.253141 -0.15263 -0.017782 0.0426468 0.0327702 -1.60142e-21 0 0 0 
200 0.201201 0.167691 0.134473 0.101211 0.0676743 0.0340521 -1.6676e-21 0 0 0 
201 -0.137054 -0.184966 -0.277551 -0.292332 -0.129666 0.00271636 -1.58819e-21 0 0 0 
202 -0.145707 -0.164719 -0.22292 -0.31184 -0.294162 -0.110457 -1.56172e-21 0 0 0 
203 -0.0837382 0.0336242 0.0951827 0.0956197 0.0677061 0.0340965 -1.64113e-21 0 0 0 
204 0.201466 0.167764 0.134484 0.101212 0.0676743 0.0340521 -1.53525e-21 0 0 0 
205 -0.249255 -0.162922 -0.026296 0.0570898 0.0628654 0.0341308 -1.7073e-21 0 0 0 
206 0.201257 0.167696 0.134472 0.101211 0.0676743 0.0340521 -1.6676e-21 0 0 0 
207 -0.185173 -0.279845 -0.292412 -0.168999 -0.0231421 0.0256763 -1.65436e-21 0 0 0 
208 0.195479 0.168131 0.134975 0.101329 0.0676854 0.0340522 -1.57495e-21 0 0 0 
209 0.141892 0.155925 0.134546 0.101872 0.0678052 0.034057 -1.65436e-21 0 0 0 
210 -0.17235 -0.195562 -0.219586 -0.277513 -0.342752 -0.301045 -1.85288e-21 0 0 0 
211 0.201199 0.167691 0.134473 0.101211 0.0676743 0.0340521 -1.54848e-21 0 0 0 
212 0.200489 0.168299 0.134731 0.101259 0.0676784 0.0340521 -1.48231e-21 0 0 0 
213 -0.0428502 0.0650892 0.109113 0.0992591 0.0681673 0.0341321 -1.65436e-21 0 0 0 
214 -0.286684 -0.186471 -0.0355417 0.0569522 0.0647534 0.0346262 -1.4029e-21 0 0 0 
215 0.183627 0.166884 0.135431 0.101525 0.067712 0.0340528 -1.6676e-21 0 0 0 
216 0.0835309 0.134556 0.130929 0.102112 0.0679763 0.0340683 -1.62789e-21 0 0 0 
217 -0.163266 -0.0325308 0.0651196 0.0904849 0.0682746 0.0343256 -1.62789e-21 0 0 0 
218 0.201486 0.167745 0.134478 0.101211 0.0676744 0.0340521 -1.7073e-21 0 0 0 
219 0.201226 0.167691 0.134473 0.101211 0.0676743 0.0340521 -1.65436e-21 0 0 0 
220 0.202052 0.168167 0.134566 0.101218 0.0676743 0.0340521 -1.7073e-21 0 0 0 
221 0.201197 0.167691 0.134473 0.101211 0.0676743 0.0340521 -1.65436e-21 0 0 0 
222 -0.200773 -0.220469 -0.262008 -0.343167 -0.369828 -0.149621 -1.4029e-21 0 0 0 
223 -0.211857 -0.301291 -0.334119 -0.196882 -0.0223115 0.0276699 -1.6676e-21 0 0 0 
224 0.201797 0.167867 0.134495 0.101212 0.0676743 0.0340521 -1.58819e-21 0 0 0 
225 -0.307597 -0.303461 -0.192387 -0.0370426 0.0437626 0.0341449 -1.89259e-21 0 0 0 
226 0.104967 0.147255 0.1342 0.102027 0.0677795 0.0340492 -1.85288e-21 0 0 0 
227 0.201197 0.16769 0.134473 0.101211 0.0676743 0.0340521 -1.7073e-21 0 0 0 
228 0.201302 0.167702 0.134473 0.101211 0.0676743 0.0340521 -1.58819e-21 0 0 0 
229 -0.201177 -0.25167 -0.351859 -0.353277 -0.165668 -0.00168586 -1.65436e-21 0 0 0 
230 0.201196 0.167691 0.134473 0.101211 0.0676743 0.0340521 -1.76024e-21 0 0 0 
231 -0.215066 -0.246765 -0.268572 -0.307457 -0.387349 -0.39267 -1.77348e-21 0 0 0 
232 -0.164853 -0.00146532 0.0859937 0.0947056 0.0676842 0.0340822 -1.74701e-21 0 0 0 
233 0.191241 0.168897 0.135342 0.101328 0.0676729 0.0340517 -1.57495e-21 0 0 0 
234 0.202363 0.168457 0.134595 0.101207 0.0676719 0.034052 -1.72054e-21 0 0 0 
235 0.00325776 0.104966 0.124857 0.101415 0.0678299 0.0340423 -1.52201e-21 0 0 0 
236 0.165219 0.164432 0.135597 0.101517 0.0676728 0.0340499 -1.64113e-21 0 0 0 
237 -0.368695 -0.359564 -0.175413 -0.00286887 0.0524778 0.0339237 -1.42937e-21 0 0 0 
238 0.202086 0.168048 0.13451 0.101206 0.0676731 0.034052 -1.82641e-21 0 0 0 
239 0.200866 0.169191 0.134854 0.101224 0.0676689 0.0340518 -1.61466e-21 0 0 0 
240 0.20119 0.167688 0.134472 0.101211 0.0676743 0.0340521 -1.53525e-21 0 0 0 
241 -0.32877 -0.169195 -0.00316932 0.0704174 0.0650944 0.0340813 -1.4029e-21 0 0 0 
242 -0.230942 -0.277038 -0.363385 -0.385378 -0.198405 -0.0141473 -1.65436e-21 0 0 0 
243 0.201191 0.167689 0.134473 0.101211 0.0676743 0.0340521 -1.49554e-21 0 0 0 
244 -0.235746 -0.25654 -0.309812 -0.405389 -0.405697 -0.168352 -1.64113e-21 0 0 0 
245 0.0552346 0.130382 0.13071 0.101863 0.0678283 0.0340586 -1.52201e-21 0 0 0 
246 0.201302 0.167699 0.134472 0.101211 0.0676743 0.0340521 -1.79995e-21 0 0 0 
247 0.151287 0.160411 0.134866 0.101469 0.0676808 0.0340501 -1.78671e-21 0 0 0 
248 0.202425 0.167981 0.134496 0.101208 0.0676738 0.0340521 -1.65436e-21 0 0 0 
249 -0.315128 -0.416769 -0.329651 -0.110567 0.0237605 0.032964 -1.68083e-21 0 0 0 
250 0.201199 0.167685 0.134472 0.101211 0.0676743 0.0340521 -1.74701e-21 0 0 0 
251 -0.243764 -0.370348 -0.451684 -0.296395 -0.0626553 0.0245406 -1.6676e-21 0 0 0 
252 0.201608 0.167757 0.134475 0.10121 0.0676743 0.0340521 -1.65436e-21 0 0 0 
253 -0.257008 -0.280916 -0.303319 -0.361088 -0.445913 -0.396641 -1.76024e-21 0 0 0 
254 0.201194 0.167691 0.134473 0.101211 0.0676743 0.0340521 -1.77348e-21 0 0 0 
255 -0.365298 -0.231471 -0.0340239 0.0664798 0.0669206 0.034591 -1.74701e-21 0 0 0 
256 -0.0359158 0.0926641 0.122661 0.102032 0.0680337 0.0340841 -1.73377e-21 0 0 0 
257 0.203488 0.169234 0.134764 0.101214 0.0676688 0.0340521 -1.78671e-21 0 0 0 
258 0.203957 0.168378 0.134538 0.101209 0.0676734 0.0340522 -1.52201e-21 0 0 0 
259 -0.263508 -0.0610446 0.0680317 0.094574 0.0688626 0.0342386 -1.57495e-21 0 0 0 
260 0.171499 0.167163 0.13607 0.10148 0.0676503 0.0340477 -1.62789e-21 0 0 0 
261 -0.383269 -0.404169 -0.234118 -0.0281122 0.0505298 0.0352969 -1.79995e-21 0 0 0 
262 0.201777 0.16777 0.134479 0.101212 0.0676743 0.0340521 -1.61466e-21 0 0 0 
263 0.201188 0.167685 0.134473 0.101211 0.0676744 0.0340521 -1.62789e-21 0 0 0 
264 -0.274507 -0.342044 -0.441536 -0.388012 -0.124576 0.0197826 -1.64113e-21 0 0 0 
265 0.0935555 0.146221 0.134512 0.102095 0.0677038 0.0340359 -1.76024e-21 0 0 0 
266 -0.27595 -0.304573 -0.37805 -0.453289 -0.368137 -0.132993 -1.69407e-21 0 0 0 
267 0.197838 0.169937 0.135199 0.101228 0.0676565 0.0340518 -1.65436e-21 0 0 0 
268 0.201184 0.167689 0.134473 0.101211 0.0676743 0.0340521 -1.7073e-21 0 0 0 
269 0.202961 0.167962 0.134472 0.101204 0.0676733 0.0340521 -1.972e-21 0 0 0 
270 0.201322 0.167693 0.134472 0.101211 0.0676744 0.0340521 -1.37643e-21 0 0 0 
271 -0.32917 -0.399835 -0.373458 -0.184554 0.000411225 0.0365313 -1.29702e-21 0 0 0 
272 -0.348878 -0.123744 0.053802 0.095226 0.0699859 0.0343111 -1.74701e-21 0 0 0 
273 -0.301453 -0.324421 -0.3591 -0.424918 -0.463538 -0.351191 -1.53525e-21 0 0 0 
274 0.201155 0.167677 0.13447 0.101211 0.0676743 0.0340521 -1.53525e-21 0 0 0 
275 0.0194467 0.126766 0.135551 0.103674 0.0679343 0.0340312 -1.56172e-21 0 0 0 
276 -0.421719 -0.446477 -0.2664 -0.0518641 0.0461622 0.0363336 -1.87935e-21 0 0 0 
277 -0.18241 0.0283816 0.11628 0.105176 0.0688126 0.0340566 -1.91906e-21 0 0 0 
278 -0.435924 -0.269899 -0.0306704 0.0793548 0.0719364 0.0346845 -1.41613e-21 0 0 0 
279 0.198101 0.171739 0.1356 0.101118 0.0676041 0.0340467 -1.79995e-21 0 0 0 
280 0.204066 0.167919 0.134311 0.101156 0.0676687 0.034052 -1.53525e-21 0 0 0 
281 0.201322 0.167602 0.134436 0.101205 0.067674 0.0340521 -1.91906e-21 0 0 0 
282 0.209007 0.171423 0.134957 0.101105 0.0676417 0.0340514 -1.19114e-21 0 0 0 
283 0.2011 0.167648 0.134464 0.10121 0.0676743 0.0340521 -1.972e-21 0 0 0 
284 0.122125 0.157678 0.137474 0.102575 0.0678284 0.0340577 -1.46907e-21 0 0 0 
285 -0.322405 -0.351087 -0.408418 -0.475405 -0.44358 -0.162437 -1.65436e-21 0 0 0 
286 0.207288 0.16903 0.134387 0.101114 0.0676601 0.0340519 -1.62789e-21 0 0 0 
287 -0.32248 -0.106881 0.0617838 0.101013 0.0713874 0.0342868 -1.65436e-21 0 0 0 
288 -0.377443 -0.456465 -0.397313 -0.165625 0.013379 0.0388426 -1.87935e-21 0 0 0 
289 0.202006 0.167606 0.134386 0.101192 0.0676729 0.0340521 -1.48231e-21 0 0 0 
290 0.201115 0.167624 0.134456 0.101209 0.0676742 0.0340521 -1.32349e-21 0 0 0 
291 -0.339842 -0.433674 -0.516835 -0.398814 -0.142964 0.0163688 -1.76024e-21 0 0 0 
292 -0.335728 -0.124215 0.0326608 0.0907467 0.0736978 0.03544 -1.65436e-21 0 0 0 
293 0.201171 0.167681 0.134471 0.101211 0.0676743 0.0340521 -1.6676e-21 0 0 0 
294 -0.341707 -0.369909 -0.397993 -0.450035 -0.525713 -0.487794 -1.65436e-21 0 0 0 
295 0.207401 0.172611 0.135901 0.101373 0.0676694 0.0340516 -1.91906e-21 0 0 0 
296 -0.486338 -0.330726 -0.144299 0.0108801 0.0627945 0.0370584 -1.32349e-21 0 0 0 
297 0.207237 0.170486 0.13514 0.101281 0.0676745 0.034052 -1.33672e-21 0 0 0 
298 0.0238697 0.124025 0.135968 0.106251 0.0690387 0.0341494 -2.05141e-21 0 0 0 
299 -0.182562 0.0162841 0.10714 0.106872 0.0713275 0.0344567 -2.05141e-21 0 0 0 
300 0.193573 0.173599 0.137801 0.101903 0.0677074 0.0340512 -1.64113e-21 0 0 0 
301 0.20125 0.167693 0.134473 0.101211 0.0676744 0.0340521 -1.85288e-21 0 0 0 
302 0.13451 0.162654 0.139483 0.103276 0.0679231 0.0340556 -1.60142e-21 0 0 0 
303 0.20195 0.167802 0.134475 0.101209 0.0676743 0.0340521 -1.48231e-21 0 0 0 
304 -0.37428 -0.444221 -0.520064 -0.473747 -0.210681 -0.0105763 -1.33672e-21 0 0 0 
305 0.201225 0.167696 0.134474 0.101211 0.0676743 0.0340521 -1.49554e-21 0 0 0 
306 -0.537706 -0.44736 -0.220917 -0.0321455 0.0407554 0.0328759 -1.4029e-21 0 0 0 
307 -0.351498 -0.385826 -0.474012 -0.572664 -0.502905 -0.193759 -1.64113e-21 0 0 0 
308 0.204447 0.168688 0.134588 0.101196 0.0676681 0.0340514 -1.78671e-21 0 0 0 
309 0.201478 0.167746 0.134481 0.101212 0.0676744 0.0340521 -1.95876e-21 0 0 0 
310 -0.49279 -0.624431 -0.513653 -0.25347 -0.0424063 0.0250885 -1.90582e-21 0 0 0 
311 0.20272 0.168018 0.134504 0.10121 0.0676741 0.0340521 -1.82641e-21 0 0 0 
312 -0.289945 -0.0722458 0.0696873 0.0943776 0.0682276 0.034127 -1.42937e-21 0 0 0 
313 -0.475951 -0.312553 -0.0778892 0.0469791 0.0617629 0.0341605 -1.87935e-21 0 0 0 
314 0.201219 0.167701 0.134476 0.101211 0.0676744 0.0340521 -1.68083e-21 0 0 0 
315 0.198547 0.170468 0.135446 0.101271 0.0676445 0.0340465 -1.56172e-21 0 0 0 
316 -0.382756 -0.395612 -0.427909 -0.512519 -0.58373 -0.503473 -1.62789e-21 0 0 0 
317 0.0919488 0.148011 0.135692 0.102434 0.0678493 0.0340647 -1.41613e-21 0 0 0 
318 0.203608 0.168734 0.134478 0.101124 0.0676497 0.034049 -1.82641e-21 0 0 0 
319 -0.485394 -0.415569 -0.198687 0.00110952 0.0582342 0.035179 -1.65436e-21 0 0 0 
320 0.20122 0.167703 0.134484 0.101215 0.0676748 0.0340521 -1.41613e-21 0 0 0 
321 0.163548 0.164666 0.135912 0.10171 0.0677163 0.0340506 -1.83965e-21 0 0 0 
322 0.201206 0.167709 0.13448 0.101212 0.0676745 0.0340521 -1.65436e-21 0 0 0 
323 -0.1042 0.0578927 0.114641 0.101191 0.0681883 0.034105 -1.65436e-21 0 0 0 
324 0.201861 0.16785 0.134517 0.101225 0.0676763 0.0340522 -1.65436e-21 0 0 0 
325 -0.434228 -0.565319 -0.588582 -0.33663 -0.0547415 0.0281433 -1.46907e-21 0 0 0 
326 -0.413513 -0.431396 -0.485992 -0.583648 -0.595034 -0.236947 -1.37643e-21 0 0 0 
327 -0.545886 -0.528669 -0.362327 -0.0980315 0.0420639 0.0365955 -1.95876e-21 0 0 0 
328 0.202937 0.168409 0.134604 0.101227 0.0676754 0.0340515 -1.20437e-21 0 0 0 
329 0.201156 0.167689 0.134478 0.101213 0.0676746 0.0340521 -1.65436e-21 0 0 0 
330 0.201443 0.167708 0.134479 0.101215 0.067675 0.0340521 -1.90582e-21 0 0 0 
331 -0.404796 -0.489359 -0.617787 -0.548022 -0.247691 -0.00919473 -1.89259e-21 0 0 0 
332 -0.429792 -0.45918 -0.481215 -0.52952 -0.624825 -0.588744 -1.85288e-21 0 0 0 
333 0.20117 0.167686 0.134473 0.101211 0.0676743 0.0340521 -1.65436e-21 0 0 0 
334 -0.488962 -0.215179 -0.005724 0.0782661 0.0688132 0.034552 -1.65436e-21 0 0 0 
335 -0.229974 -0.00973436 0.0928063 0.0997989 0.0689321 0.034191 -1.6676e-21 0 0 0 
336 0.202984 0.1693 0.134948 0.101306 0.0676883 0.0340517 -1.73377e-21 0 0 0 
337 0.154106 0.160315 0.135081 0.101888 0.0679302 0.034109 -1.65436e-21 0 0 0 
338 -0.633018 -0.414438 -0.151632 0.020861 0.0637327 0.0356448 -1.81318e-21 0 0 0 
339 0.201089 0.167606 0.134448 0.101207 0.0676741 0.0340521 -1.65436e-21 0 0 0 
340 -0.449017 -0.512457 -0.613803 -0.567722 -0.241388 -0.0104341 -1.46907e-21 0 0 0 
341 0.196554 0.169615 0.13535 0.101365 0.0676906 0.0340523 -1.6676e-21 0 0 0 
342 -0.447323 -0.461891 -0.547033 -0.667803 -0.576394 -0.220602 -1.50878e-21 0 0 0 
343 0.201087 0.167638 0.13446 0.101209 0.0676742 0.0340521 -1.65436e-21 0 0 0 
344 0.202415 0.167688 0.134365 0.101176 0.06767 0.034052 -1.53525e-21 0 0 0 
345 -0.165073 0.021555 0.100974 0.0997177 0.0686644 0.0341763 -1.65436e-21 0 0 0 
346 0.03727 0.121609 0.129511 0.102587 0.0684275 0.0342366 -1.64113e-21 0 0 0 
347 -0.598563 -0.489844 -0.227057 -0.016925 0.051785 0.0350081 -1.56172e-21 0 0 0 
348 0.207278 0.169628 0.134545 0.101082 0.0676361 0.0340488 -1.82641e-21 0 0 0 
349 -0.487132 -0.490532 -0.481609 -0.559468 -0.686768 -0.544053 -1.90582e-21 0 0 0 
350 0.201586 0.167604 0.134411 0.101197 0.067673 0.0340521 -1.65436e-21 0 0 0 
351 -0.594444 -0.652798 -0.52086 -0.254013 -0.0308595 0.0284977 -1.54848e-21 0 0 0 
352 0.201121 0.167659 0.134465 0.10121 0.0676742 0.0340521 -1.68083e-21 0 0 0 
353 0.204499 0.171359 0.135193 0.101089 0.0675911 0.0340387 -1.972e-21 0 0 0 
354 0.205328 0.16844 0.134366 0.101125 0.0676599 0.0340524 -1.74701e-21 0 0 0 
355 -0.425001 -0.208455 -0.0109161 0.0739777 0.0680852 0.0347896 -1.77348e-21 0 0 0 
356 0.0833802 0.145575 0.137529 0.104243 0.0682888 0.0340541 -1.64113e-21 0 0 0 
357 -0.481411 -0.520312 -0.573671 -0.642904 -0.68152 -0.535475 -1.65436e-21 0 0 0 
358 0.183442 0.170637 0.136925 0.101678 0.06763 0.0340239 -1.24408e-21 0 0 0 
359 0.201228 0.167695 0.134474 0.101211 0.0676743 0.0340521 -1.90582e-21 0 0 0 
360 -0.588367 -0.648506 -0.56172 -0.293279 -0.0526705 0.0219743 -1.77348e-21 0 0 0 
361 0.20213 0.167871 0.134502 0.101217 0.0676756 0.0340522 -1.94553e-21 0 0 0 
362 -0.525048 -0.622677 -0.691382 -0.611084 -0.374985 -0.137516 -1.68083e-21 0 0 0 
363 0.201434 0.167736 0.134482 0.101213 0.0676745 0.0340521 -1.42937e-21 0 0 0 
364 -0.364486 -0.132464 0.0441741 0.0973384 0.0746651 0.0356795 -1.24408e-21 0 0 0 
365 -0.0757158 0.0838152 0.133346 0.110476 0.0706695 0.0342989 -1.6676e-21 0 0 0 
366 0.206465 0.169243 0.134748 0.101251 0.0676833 0.0340534 -1.29702e-21 0 0 0 
367 0.185657 0.175136 0.140082 0.102798 0.0679028 0.0340757 -2.03817e-21 0 0 0 
368 -0.623646 -0.558774 -0.378038 -0.115768 0.0437985 0.0456996 -2.05141e-21 0 0 0 
369 0.203825 0.168344 0.134598 0.101237 0.0676793 0.0340525 -1.24408e-21 0 0 0 